# vtk DataFile Version 4.2
vtk output
ASCII
DATASET POLYDATA
POINTS 564 float
0 0 0 0.01 0 0 0.01 0.01 0 
0 0.01 0 0.02 0 0 0.02 0.01 0 
0.03 0 0 0.03 0.01 0 0.04 0 0 
0.04 0.01 0 0.05 0 0 0.05 0.01 0 
0.06 0 0 0.06 0.01 0 0.07 0 0 
0.07 0.01 0 0.08 0 0 0.08 0.01 0 
0.09 0 0 0.09 0.01 0 0.1 0 0 
0.1 0.01 0 0.11 0 0 0.11 0.01 0 
0.12 0 0 0.12 0.01 0 0.13 0 0 
0.13 0.01 0 0.14 0 0 0.14 0.01 0 
0.15 0 0 0.15 0.01 0 0.16 0 0 
0.16 0.01 0 0.17 0 0 0.17 0.01 0 
0.18 0 0 0.18 0.01 0 0.19 0 0 
0.19 0.01 0 0.2 0 0 0.2 0.01 0 
0.21 0 0 0.21 0.01 0 0.22 0 0 
0.22 0.01 0 0.23 0 0 0.23 0.01 0 
0.24 0 0 0.24 0.01 0 0.25 0 0 
0.25 0.01 0 0.26 0 0 0.26 0.01 0 
0.27 0 0 0.27 0.01 0 0.01 0.02 0 
0 0.02 0 0.02 0.02 0 0.03 0.02 0 
0.04 0.02 0 0.05 0.02 0 0.06 0.02 0 
0.07 0.02 0 0.08 0.02 0 0.09 0.02 0 
0.1 0.02 0 0.11 0.02 0 0.12 0.02 0 
0.13 0.02 0 0.14 0.02 0 0.15 0.02 0 
0.16 0.02 0 0.17 0.02 0 0.18 0.02 0 
0.19 0.02 0 0.2 0.02 0 0.21 0.02 0 
0.22 0.02 0 0.23 0.02 0 0.24 0.02 0 
0.25 0.02 0 0.26 0.02 0 0.27 0.02 0 
0.01 0.03 0 0 0.03 0 0.02 0.03 0 
0.03 0.03 0 0.04 0.03 0 0.05 0.03 0 
0.06 0.03 0 0.07 0.03 0 0.08 0.03 0 
0.09 0.03 0 0.1 0.03 0 0.11 0.03 0 
0.12 0.03 0 0.13 0.03 0 0.14 0.03 0 
0.15 0.03 0 0.16 0.03 0 0.17 0.03 0 
0.18 0.03 0 0.19 0.03 0 0.2 0.03 0 
0.21 0.03 0 0.22 0.03 0 0.23 0.03 0 
0.24 0.03 0 0.25 0.03 0 0.26 0.03 0 
0.27 0.03 0 0.01 0.04 0 0 0.04 0 
0.02 0.04 0 0.03 0.04 0 0.04 0.04 0 
0.05 0.04 0 0.06 0.04 0 0.07 0.04 0 
0.08 0.04 0 0.09 0.04 0 0.1 0.04 0 
0.11 0.04 0 0.12 0.04 0 0.13 0.04 0 
0.14 0.04 0 0.15 0.04 0 0.16 0.04 0 
0.17 0.04 0 0.18 0.04 0 0.19 0.04 0 
0.2 0.04 0 0.21 0.04 0 0.22 0.04 0 
0.23 0.04 0 0.24 0.04 0 0.25 0.04 0 
0.26 0.04 0 0.27 0.04 0 0.01 0.05 0 
0 0.05 0 0.02 0.05 0 0.03 0.05 0 
0.04 0.05 0 0.05 0.05 0 0.06 0.05 0 
0.07 0.05 0 0.08 0.05 0 0.09 0.05 0 
0.1 0.05 0 0.11 0.05 0 0.12 0.05 0 
0.13 0.05 0 0.14 0.05 0 0.15 0.05 0 
0.16 0.05 0 0.17 0.05 0 0.18 0.05 0 
0.19 0.05 0 0.2 0.05 0 0.21 0.05 0 
0.22 0.05 0 0.23 0.05 0 0.24 0.05 0 
0.25 0.05 0 0.26 0.05 0 0.27 0.05 0 
0.01 0.06 0 0 0.06 0 0.02 0.06 0 
0.03 0.06 0 0.04 0.06 0 0.05 0.06 0 
0.06 0.06 0 0.07 0.06 0 0.08 0.06 0 
0.09 0.06 0 0.1 0.06 0 0.11 0.06 0 
0.12 0.06 0 0.13 0.06 0 0.14 0.06 0 
0.15 0.06 0 0.16 0.06 0 0.17 0.06 0 
0.18 0.06 0 0.19 0.06 0 0.2 0.06 0 
0.21 0.06 0 0.22 0.06 0 0.23 0.06 0 
0.24 0.06 0 0.25 0.06 0 0.26 0.06 0 
0.27 0.06 0 0.01 0.07 0 0 0.07 0 
0.02 0.07 0 0.03 0.07 0 0.04 0.07 0 
0.05 0.07 0 0.06 0.07 0 0.07 0.07 0 
0.08 0.07 0 0.09 0.07 0 0.1 0.07 0 
0.11 0.07 0 0.12 0.07 0 0.13 0.07 0 
0.14 0.07 0 0.15 0.07 0 0.16 0.07 0 
0.17 0.07 0 0.18 0.07 0 0.19 0.07 0 
0.2 0.07 0 0.21 0.07 0 0.22 0.07 0 
0.23 0.07 0 0.24 0.07 0 0.25 0.07 0 
0.26 0.07 0 0.27 0.07 0 0.01 0.08 0 
0 0.08 0 0.02 0.08 0 0.03 0.08 0 
0.04 0.08 0 0.05 0.08 0 0.06 0.08 0 
0.07 0.08 0 0.08 0.08 0 0.09 0.08 0 
0.1 0.08 0 0.11 0.08 0 0.19 0.08 0 
0.18 0.08 0 0.2 0.08 0 0.21 0.08 0 
0.22 0.08 0 0.23 0.08 0 0.24 0.08 0 
0.25 0.08 0 0.26 0.08 0 0.27 0.08 0 
0.01 0.09 0 0 0.09 0 0.02 0.09 0 
0.03 0.09 0 0.04 0.09 0 0.05 0.09 0 
0.06 0.09 0 0.07 0.09 0 0.08 0.09 0 
0.09 0.09 0 0.1 0.09 0 0.11 0.09 0 
0.19 0.09 0 0.18 0.09 0 0.2 0.09 0 
0.21 0.09 0 0.22 0.09 0 0.23 0.09 0 
0.24 0.09 0 0.25 0.09 0 0.26 0.09 0 
0.27 0.09 0 0.01 0.1 0 0 0.1 0 
0.02 0.1 0 0.03 0.1 0 0.04 0.1 0 
0.05 0.1 0 0.06 0.1 0 0.07 0.1 0 
0.08 0.1 0 0.09 0.1 0 0.1 0.1 0 
0.11 0.1 0 0.19 0.1 0 0.18 0.1 0 
0.2 0.1 0 0.21 0.1 0 0.22 0.1 0 
0.23 0.1 0 0.24 0.1 0 0.25 0.1 0 
0.26 0.1 0 0.27 0.1 0 0.01 0.11 0 
0 0.11 0 0.02 0.11 0 0.03 0.11 0 
0.04 0.11 0 0.05 0.11 0 0.06 0.11 0 
0.07 0.11 0 0.08 0.11 0 0.09 0.11 0 
0.1 0.11 0 0.11 0.11 0 0.19 0.11 0 
0.18 0.11 0 0.2 0.11 0 0.21 0.11 0 
0.22 0.11 0 0.23 0.11 0 0.24 0.11 0 
0.25 0.11 0 0.26 0.11 0 0.27 0.11 0 
0.01 0.12 0 0 0.12 0 0.02 0.12 0 
0.03 0.12 0 0.04 0.12 0 0.05 0.12 0 
0.06 0.12 0 0.07 0.12 0 0.08 0.12 0 
0.09 0.12 0 0.1 0.12 0 0.11 0.12 0 
0.19 0.12 0 0.18 0.12 0 0.2 0.12 0 
0.21 0.12 0 0.22 0.12 0 0.23 0.12 0 
0.24 0.12 0 0.25 0.12 0 0.26 0.12 0 
0.27 0.12 0 0.01 0.13 0 0 0.13 0 
0.02 0.13 0 0.03 0.13 0 0.04 0.13 0 
0.05 0.13 0 0.06 0.13 0 0.07 0.13 0 
0.08 0.13 0 0.09 0.13 0 0.1 0.13 0 
0.11 0.13 0 0.12 0.12 0 0.12 0.13 0 
0.13 0.12 0 0.13 0.13 0 0.14 0.12 0 
0.14 0.13 0 0.15 0.12 0 0.15 0.13 0 
0.16 0.12 0 0.16 0.13 0 0.17 0.12 0 
0.17 0.13 0 0.18 0.13 0 0.19 0.13 0 
0.2 0.13 0 0.21 0.13 0 0.22 0.13 0 
0.23 0.13 0 0.24 0.13 0 0.25 0.13 0 
0.26 0.13 0 0.27 0.13 0 0.01 0.14 0 
0 0.14 0 0.02 0.14 0 0.03 0.14 0 
0.04 0.14 0 0.05 0.14 0 0.06 0.14 0 
0.07 0.14 0 0.08 0.14 0 0.09 0.14 0 
0.1 0.14 0 0.11 0.14 0 0.12 0.14 0 
0.13 0.14 0 0.14 0.14 0 0.15 0.14 0 
0.16 0.14 0 0.17 0.14 0 0.18 0.14 0 
0.19 0.14 0 0.2 0.14 0 0.21 0.14 0 
0.22 0.14 0 0.23 0.14 0 0.24 0.14 0 
0.25 0.14 0 0.26 0.14 0 0.27 0.14 0 
0.01 0.15 0 0 0.15 0 0.02 0.15 0 
0.03 0.15 0 0.04 0.15 0 0.05 0.15 0 
0.06 0.15 0 0.07 0.15 0 0.08 0.15 0 
0.09 0.15 0 0.1 0.15 0 0.11 0.15 0 
0.12 0.15 0 0.13 0.15 0 0.14 0.15 0 
0.15 0.15 0 0.16 0.15 0 0.17 0.15 0 
0.18 0.15 0 0.19 0.15 0 0.2 0.15 0 
0.21 0.15 0 0.22 0.15 0 0.23 0.15 0 
0.24 0.15 0 0.25 0.15 0 0.26 0.15 0 
0.27 0.15 0 0.01 0.16 0 0 0.16 0 
0.02 0.16 0 0.03 0.16 0 0.04 0.16 0 
0.05 0.16 0 0.06 0.16 0 0.07 0.16 0 
0.08 0.16 0 0.09 0.16 0 0.1 0.16 0 
0.11 0.16 0 0.12 0.16 0 0.13 0.16 0 
0.14 0.16 0 0.15 0.16 0 0.16 0.16 0 
0.17 0.16 0 0.18 0.16 0 0.19 0.16 0 
0.2 0.16 0 0.21 0.16 0 0.22 0.16 0 
0.23 0.16 0 0.24 0.16 0 0.25 0.16 0 
0.26 0.16 0 0.27 0.16 0 0.01 0.17 0 
0 0.17 0 0.02 0.17 0 0.03 0.17 0 
0.04 0.17 0 0.05 0.17 0 0.06 0.17 0 
0.07 0.17 0 0.08 0.17 0 0.09 0.17 0 
0.1 0.17 0 0.11 0.17 0 0.12 0.17 0 
0.13 0.17 0 0.14 0.17 0 0.15 0.17 0 
0.16 0.17 0 0.17 0.17 0 0.18 0.17 0 
0.19 0.17 0 0.2 0.17 0 0.21 0.17 0 
0.22 0.17 0 0.23 0.17 0 0.24 0.17 0 
0.25 0.17 0 0.26 0.17 0 0.27 0.17 0 
0.01 0.18 0 0 0.18 0 0.02 0.18 0 
0.03 0.18 0 0.04 0.18 0 0.05 0.18 0 
0.06 0.18 0 0.07 0.18 0 0.08 0.18 0 
0.09 0.18 0 0.1 0.18 0 0.11 0.18 0 
0.12 0.18 0 0.13 0.18 0 0.14 0.18 0 
0.15 0.18 0 0.16 0.18 0 0.17 0.18 0 
0.18 0.18 0 0.19 0.18 0 0.2 0.18 0 
0.21 0.18 0 0.22 0.18 0 0.23 0.18 0 
0.24 0.18 0 0.25 0.18 0 0.26 0.18 0 
0.27 0.18 0 0.01 0.19 0 0 0.19 0 
0.02 0.19 0 0.03 0.19 0 0.04 0.19 0 
0.05 0.19 0 0.06 0.19 0 0.07 0.19 0 
0.08 0.19 0 0.09 0.19 0 0.1 0.19 0 
0.11 0.19 0 0.12 0.19 0 0.13 0.19 0 
0.14 0.19 0 0.15 0.19 0 0.16 0.19 0 
0.17 0.19 0 0.18 0.19 0 0.19 0.19 0 
0.2 0.19 0 0.21 0.19 0 0.22 0.19 0 
0.23 0.19 0 0.24 0.19 0 0.25 0.19 0 
0.26 0.19 0 0.27 0.19 0 0.01 0.2 0 
0 0.2 0 0.02 0.2 0 0.03 0.2 0 
0.04 0.2 0 0.05 0.2 0 0.06 0.2 0 
0.07 0.2 0 0.08 0.2 0 0.09 0.2 0 
0.1 0.2 0 0.11 0.2 0 0.12 0.2 0 
0.13 0.2 0 0.14 0.2 0 0.15 0.2 0 
0.16 0.2 0 0.17 0.2 0 0.18 0.2 0 
0.19 0.2 0 0.2 0.2 0 0.21 0.2 0 
0.22 0.2 0 0.23 0.2 0 0.24 0.2 0 
0.25 0.2 0 0.26 0.2 0 0.27 0.2 0 

POLYGONS 505 2525
4 509 508 536 537 
4 508 510 538 536 
4 510 511 539 538 
4 511 512 540 539 
4 512 513 541 540 
4 513 514 542 541 
4 514 515 543 542 
4 515 516 544 543 
4 516 517 545 544 
4 517 518 546 545 
4 518 519 547 546 
4 519 520 548 547 
4 520 521 549 548 
4 521 522 550 549 
4 522 523 551 550 
4 523 524 552 551 
4 524 525 553 552 
4 525 526 554 553 
4 526 527 555 554 
4 527 528 556 555 
4 528 529 557 556 
4 529 530 558 557 
4 530 531 559 558 
4 531 532 560 559 
4 532 533 561 560 
4 533 534 562 561 
4 534 535 563 562 
4 481 480 508 509 
4 480 482 510 508 
4 482 483 511 510 
4 483 484 512 511 
4 484 485 513 512 
4 485 486 514 513 
4 486 487 515 514 
4 487 488 516 515 
4 488 489 517 516 
4 489 490 518 517 
4 490 491 519 518 
4 491 492 520 519 
4 492 493 521 520 
4 493 494 522 521 
4 494 495 523 522 
4 495 496 524 523 
4 496 497 525 524 
4 497 498 526 525 
4 498 499 527 526 
4 499 500 528 527 
4 500 501 529 528 
4 501 502 530 529 
4 502 503 531 530 
4 503 504 532 531 
4 504 505 533 532 
4 505 506 534 533 
4 506 507 535 534 
4 453 452 480 481 
4 452 454 482 480 
4 454 455 483 482 
4 455 456 484 483 
4 456 457 485 484 
4 457 458 486 485 
4 458 459 487 486 
4 459 460 488 487 
4 460 461 489 488 
4 461 462 490 489 
4 462 463 491 490 
4 463 464 492 491 
4 464 465 493 492 
4 465 466 494 493 
4 466 467 495 494 
4 467 468 496 495 
4 468 469 497 496 
4 469 470 498 497 
4 470 471 499 498 
4 471 472 500 499 
4 472 473 501 500 
4 473 474 502 501 
4 474 475 503 502 
4 475 476 504 503 
4 476 477 505 504 
4 477 478 506 505 
4 478 479 507 506 
4 425 424 452 453 
4 424 426 454 452 
4 426 427 455 454 
4 427 428 456 455 
4 428 429 457 456 
4 429 430 458 457 
4 430 431 459 458 
4 431 432 460 459 
4 432 433 461 460 
4 433 434 462 461 
4 434 435 463 462 
4 435 436 464 463 
4 436 437 465 464 
4 437 438 466 465 
4 438 439 467 466 
4 439 440 468 467 
4 440 441 469 468 
4 441 442 470 469 
4 442 443 471 470 
4 443 444 472 471 
4 444 445 473 472 
4 445 446 474 473 
4 446 447 475 474 
4 447 448 476 475 
4 448 449 477 476 
4 449 450 478 477 
4 450 451 479 478 
4 397 396 424 425 
4 396 398 426 424 
4 398 399 427 426 
4 399 400 428 427 
4 400 401 429 428 
4 401 402 430 429 
4 402 403 431 430 
4 403 404 432 431 
4 404 405 433 432 
4 405 406 434 433 
4 406 407 435 434 
4 407 408 436 435 
4 408 409 437 436 
4 409 410 438 437 
4 410 411 439 438 
4 411 412 440 439 
4 412 413 441 440 
4 413 414 442 441 
4 414 415 443 442 
4 415 416 444 443 
4 416 417 445 444 
4 417 418 446 445 
4 418 419 447 446 
4 419 420 448 447 
4 420 421 449 448 
4 421 422 450 449 
4 422 423 451 450 
4 369 368 396 397 
4 368 370 398 396 
4 370 371 399 398 
4 371 372 400 399 
4 372 373 401 400 
4 373 374 402 401 
4 374 375 403 402 
4 375 376 404 403 
4 376 377 405 404 
4 377 378 406 405 
4 378 379 407 406 
4 379 380 408 407 
4 380 381 409 408 
4 381 382 410 409 
4 382 383 411 410 
4 383 384 412 411 
4 384 385 413 412 
4 385 386 414 413 
4 386 387 415 414 
4 387 388 416 415 
4 388 389 417 416 
4 389 390 418 417 
4 390 391 419 418 
4 391 392 420 419 
4 392 393 421 420 
4 393 394 422 421 
4 394 395 423 422 
4 335 334 368 369 
4 334 336 370 368 
4 336 337 371 370 
4 337 338 372 371 
4 338 339 373 372 
4 339 340 374 373 
4 340 341 375 374 
4 341 342 376 375 
4 342 343 377 376 
4 343 344 378 377 
4 344 345 379 378 
4 345 347 380 379 
4 347 349 381 380 
4 349 351 382 381 
4 351 353 383 382 
4 353 355 384 383 
4 355 357 385 384 
4 357 358 386 385 
4 358 359 387 386 
4 359 360 388 387 
4 360 361 389 388 
4 361 362 390 389 
4 362 363 391 390 
4 363 364 392 391 
4 364 365 393 392 
4 365 366 394 393 
4 366 367 395 394 
4 313 312 334 335 
4 312 314 336 334 
4 314 315 337 336 
4 315 316 338 337 
4 316 317 339 338 
4 317 318 340 339 
4 318 319 341 340 
4 319 320 342 341 
4 320 321 343 342 
4 321 322 344 343 
4 322 323 345 344 
4 323 346 347 345 
4 346 348 349 347 
4 348 350 351 349 
4 350 352 353 351 
4 352 354 355 353 
4 354 356 357 355 
4 356 325 358 357 
4 325 324 359 358 
4 324 326 360 359 
4 326 327 361 360 
4 327 328 362 361 
4 328 329 363 362 
4 329 330 364 363 
4 330 331 365 364 
4 331 332 366 365 
4 332 333 367 366 
4 291 290 312 313 
4 290 292 314 312 
4 292 293 315 314 
4 293 294 316 315 
4 294 295 317 316 
4 295 296 318 317 
4 296 297 319 318 
4 297 298 320 319 
4 298 299 321 320 
4 299 300 322 321 
4 300 301 323 322 
4 303 302 324 325 
4 302 304 326 324 
4 304 305 327 326 
4 305 306 328 327 
4 306 307 329 328 
4 307 308 330 329 
4 308 309 331 330 
4 309 310 332 331 
4 310 311 333 332 
4 269 268 290 291 
4 268 270 292 290 
4 270 271 293 292 
4 271 272 294 293 
4 272 273 295 294 
4 273 274 296 295 
4 274 275 297 296 
4 275 276 298 297 
4 276 277 299 298 
4 277 278 300 299 
4 278 279 301 300 
4 281 280 302 303 
4 280 282 304 302 
4 282 283 305 304 
4 283 284 306 305 
4 284 285 307 306 
4 285 286 308 307 
4 286 287 309 308 
4 287 288 310 309 
4 288 289 311 310 
4 247 246 268 269 
4 246 248 270 268 
4 248 249 271 270 
4 249 250 272 271 
4 250 251 273 272 
4 251 252 274 273 
4 252 253 275 274 
4 253 254 276 275 
4 254 255 277 276 
4 255 256 278 277 
4 256 257 279 278 
4 259 258 280 281 
4 258 260 282 280 
4 260 261 283 282 
4 261 262 284 283 
4 262 263 285 284 
4 263 264 286 285 
4 264 265 287 286 
4 265 266 288 287 
4 266 267 289 288 
4 225 224 246 247 
4 224 226 248 246 
4 226 227 249 248 
4 227 228 250 249 
4 228 229 251 250 
4 229 230 252 251 
4 230 231 253 252 
4 231 232 254 253 
4 232 233 255 254 
4 233 234 256 255 
4 234 235 257 256 
4 237 236 258 259 
4 236 238 260 258 
4 238 239 261 260 
4 239 240 262 261 
4 240 241 263 262 
4 241 242 264 263 
4 242 243 265 264 
4 243 244 266 265 
4 244 245 267 266 
4 197 196 224 225 
4 196 198 226 224 
4 198 199 227 226 
4 199 200 228 227 
4 200 201 229 228 
4 201 202 230 229 
4 202 203 231 230 
4 203 204 232 231 
4 204 205 233 232 
4 205 206 234 233 
4 206 207 235 234 
4 214 215 236 237 
4 215 216 238 236 
4 216 217 239 238 
4 217 218 240 239 
4 218 219 241 240 
4 219 220 242 241 
4 220 221 243 242 
4 221 222 244 243 
4 222 223 245 244 
4 169 168 196 197 
4 168 170 198 196 
4 170 171 199 198 
4 171 172 200 199 
4 172 173 201 200 
4 173 174 202 201 
4 174 175 203 202 
4 175 176 204 203 
4 176 177 205 204 
4 177 178 206 205 
4 178 179 207 206 
4 179 180 208 207 
4 180 181 209 208 
4 181 182 210 209 
4 182 183 211 210 
4 183 184 212 211 
4 184 185 213 212 
4 185 186 214 213 
4 186 187 215 214 
4 187 188 216 215 
4 188 189 217 216 
4 189 190 218 217 
4 190 191 219 218 
4 191 192 220 219 
4 192 193 221 220 
4 193 194 222 221 
4 194 195 223 222 
4 141 140 168 169 
4 140 142 170 168 
4 142 143 171 170 
4 143 144 172 171 
4 144 145 173 172 
4 145 146 174 173 
4 146 147 175 174 
4 147 148 176 175 
4 148 149 177 176 
4 149 150 178 177 
4 150 151 179 178 
4 151 152 180 179 
4 152 153 181 180 
4 153 154 182 181 
4 154 155 183 182 
4 155 156 184 183 
4 156 157 185 184 
4 157 158 186 185 
4 158 159 187 186 
4 159 160 188 187 
4 160 161 189 188 
4 161 162 190 189 
4 162 163 191 190 
4 163 164 192 191 
4 164 165 193 192 
4 165 166 194 193 
4 166 167 195 194 
4 113 112 140 141 
4 112 114 142 140 
4 114 115 143 142 
4 115 116 144 143 
4 116 117 145 144 
4 117 118 146 145 
4 118 119 147 146 
4 119 120 148 147 
4 120 121 149 148 
4 121 122 150 149 
4 122 123 151 150 
4 123 124 152 151 
4 124 125 153 152 
4 125 126 154 153 
4 126 127 155 154 
4 127 128 156 155 
4 128 129 157 156 
4 129 130 158 157 
4 130 131 159 158 
4 131 132 160 159 
4 132 133 161 160 
4 133 134 162 161 
4 134 135 163 162 
4 135 136 164 163 
4 136 137 165 164 
4 137 138 166 165 
4 138 139 167 166 
4 85 84 112 113 
4 84 86 114 112 
4 86 87 115 114 
4 87 88 116 115 
4 88 89 117 116 
4 89 90 118 117 
4 90 91 119 118 
4 91 92 120 119 
4 92 93 121 120 
4 93 94 122 121 
4 94 95 123 122 
4 95 96 124 123 
4 96 97 125 124 
4 97 98 126 125 
4 98 99 127 126 
4 99 100 128 127 
4 100 101 129 128 
4 101 102 130 129 
4 102 103 131 130 
4 103 104 132 131 
4 104 105 133 132 
4 105 106 134 133 
4 106 107 135 134 
4 107 108 136 135 
4 108 109 137 136 
4 109 110 138 137 
4 110 111 139 138 
4 57 56 84 85 
4 56 58 86 84 
4 58 59 87 86 
4 59 60 88 87 
4 60 61 89 88 
4 61 62 90 89 
4 62 63 91 90 
4 63 64 92 91 
4 64 65 93 92 
4 65 66 94 93 
4 66 67 95 94 
4 67 68 96 95 
4 68 69 97 96 
4 69 70 98 97 
4 70 71 99 98 
4 71 72 100 99 
4 72 73 101 100 
4 73 74 102 101 
4 74 75 103 102 
4 75 76 104 103 
4 76 77 105 104 
4 77 78 106 105 
4 78 79 107 106 
4 79 80 108 107 
4 80 81 109 108 
4 81 82 110 109 
4 82 83 111 110 
4 3 2 56 57 
4 2 5 58 56 
4 5 7 59 58 
4 7 9 60 59 
4 9 11 61 60 
4 11 13 62 61 
4 13 15 63 62 
4 15 17 64 63 
4 17 19 65 64 
4 19 21 66 65 
4 21 23 67 66 
4 23 25 68 67 
4 25 27 69 68 
4 27 29 70 69 
4 29 31 71 70 
4 31 33 72 71 
4 33 35 73 72 
4 35 37 74 73 
4 37 39 75 74 
4 39 41 76 75 
4 41 43 77 76 
4 43 45 78 77 
4 45 47 79 78 
4 47 49 80 79 
4 49 51 81 80 
4 51 53 82 81 
4 53 55 83 82 
4 0 1 2 3 
4 1 4 5 2 
4 4 6 7 5 
4 6 8 9 7 
4 8 10 11 9 
4 10 12 13 11 
4 12 14 15 13 
4 14 16 17 15 
4 16 18 19 17 
4 18 20 21 19 
4 20 22 23 21 
4 22 24 25 23 
4 24 26 27 25 
4 26 28 29 27 
4 28 30 31 29 
4 30 32 33 31 
4 32 34 35 33 
4 34 36 37 35 
4 36 38 39 37 
4 38 40 41 39 
4 40 42 43 41 
4 42 44 45 43 
4 44 46 47 45 
4 46 48 49 47 
4 48 50 51 49 
4 50 52 53 51 
4 52 54 55 53 

CELL_DATA 505
SCALARS pressure double
LOOKUP_TABLE default
0.00048394075487 0.00034795702069 0.00019530937437 0.00010627619908 5.2893799285e-05 2.0280754247e-05 9.3970164206e-07 -9.6023220423e-06 -1.3710627468e-05 
-1.2578520931e-05 -8.7662926435e-06 -4.4087201818e-06 -1.8544096228e-07 3.5378067815e-06 6.5884870519e-06 8.8932515981e-06 1.0451467557e-05 1.1348221896e-05 
1.1812985418e-05 1.2333839906e-05 1.3669572047e-05 1.6660415143e-05 2.1733423039e-05 2.8065533253e-05 3.3037946761e-05 3.3636171336e-05 3.0159700884e-05 
0.00026311733668 0.00021388381209 0.00014021185883 8.4230437599e-05 4.6082607704e-05 2.1155540562e-05 5.6448877863e-06 -3.04637173e-06 -6.5017781201e-06 
-5.9113398006e-06 -2.7404992634e-06 5.3759807185e-07 3.8438963097e-06 6.6991640453e-06 9.0369189269e-06 1.0848495102e-05 1.2171044421e-05 1.3096314769e-05 
1.3767546548e-05 1.442285231e-05 1.5442262039e-05 1.7359307612e-05 2.0678099331e-05 2.5211188179e-05 2.9291274934e-05 3.0506762257e-05 2.6663131495e-05 
0.00013758733743 0.00011923324815 7.6627718296e-05 4.3481885169e-05 1.9475458677e-05 3.4397597788e-06 -6.2433908886e-06 -1.0965775435e-05 -1.1700183783e-05 
-9.3448503054e-06 -5.0101048276e-06 -4.573765121e-08 4.7667226125e-06 8.0614299449e-06 1.0454371175e-05 1.2134314924e-05 1.3275861722e-05 1.401623506e-05 
1.4316883881e-05 1.4169047589e-05 1.3816162556e-05 1.40262966e-05 1.6087439382e-05 2.0832023491e-05 2.678932238e-05 2.9955547651e-05 2.3882600886e-05 
6.4518721827e-05 5.5098083024e-05 3.1484494708e-05 1.0134223509e-05 -5.1634933111e-06 -1.5165641681e-05 -2.0703453757e-05 -2.2717350373e-05 -2.1669826651e-05 
-1.8072829878e-05 -1.2476391316e-05 -5.5953499103e-06 1.5602073613e-06 6.9963318743e-06 1.0135933807e-05 1.2045926814e-05 1.3191042895e-05 1.3933552741e-05 
1.3690174507e-05 1.2167836939e-05 9.4692552973e-06 6.6849893432e-06 6.2870762238e-06 1.1104249369e-05 2.0860232104e-05 2.950510505e-05 2.3079861149e-05 
2.0322936493e-05 1.4108957199e-05 -3.4805603606e-07 -1.3624801903e-05 -2.2965040356e-05 -2.9447050747e-05 -3.2820995115e-05 -3.3788790556e-05 -3.2330474147e-05 
-2.8844839565e-05 -2.3286716414e-05 -1.5362255721e-05 -5.136802463e-06 2.9957860378e-06 7.4266535723e-06 9.8066715412e-06 1.1275062034e-05 1.2999704806e-05 
1.1913825302e-05 8.3309252232e-06 2.3230474748e-06 -4.8946316286e-06 -9.545824982e-06 -5.4850282288e-06 1.0019916122e-05 2.890743348e-05 2.7823866791e-05 
-5.783877911e-06 -1.0821312918e-05 -2.0009556657e-05 -2.8546935243e-05 -3.4778552454e-05 -3.9089032129e-05 -4.1367118791e-05 -4.1971360864e-05 -4.091598264e-05 
-3.8858412501e-05 -3.553901378e-05 -2.8766876656e-05 -1.2737451709e-05 -2.0580856964e-06 3.3150362341e-06 5.9466044259e-06 8.0017832036e-06 1.3660878978e-05 
8.9814976662e-06 2.3966949189e-06 -7.0302196803e-06 -1.9099328747e-05 -2.8796052456e-05 -2.511287717e-05 -8.7835708252e-07 3.333063264e-05 4.5449136346e-05 
-2.0061941884e-05 -2.4871693264e-05 -3.1342160701e-05 -3.7173074847e-05 -4.1638070843e-05 -4.4839313719e-05 -4.6693202342e-05 -4.7206110786e-05 -4.6648257917e-05 
-4.6402649568e-05 -4.8478102155e-05 -5.2223670431e-05 -1.8401398254e-05 -4.3716959258e-06 9.5078245717e-07 5.1586563042e-06 9.5166483993e-06 2.4057270859e-05 
-1.0829741533e-05 -9.9944130244e-06 -1.7490638151e-05 -3.1602908336e-05 -4.2218787462e-05 -3.2520061802e-05 6.2007106485e-06 5.7027981191e-05 8.4945077139e-05 
-2.6378343345e-05 -3.1532080948e-05 -3.6767427549e-05 -4.1322296348e-05 -4.496674253e-05 -4.7703702272e-05 -4.9378559934e-05 -4.9812595925e-05 -4.9216326723e-05 
-5.00234259e-05 -6.5351947425e-05 -0.00012854847183 1.2259420736e-05 3.9434909732e-05 4.1356837653e-05 3.8540812043e-05 3.9847299758e-05 5.9523862957e-05 
-0.00023447432644 -4.4577232522e-05 -1.8997320777e-05 -1.7883688707e-05 -1.2478420796e-05 1.0368337327e-05 5.6193078408e-05 0.00011213882364 0.00014920025989 
-2.7146076842e-05 -3.3035471746e-05 -3.7930076785e-05 -4.2142659838e-05 -4.5668232026e-05 -4.842932333e-05 -5.0186579936e-05 -5.0601357815e-05 -4.9259522279e-05 
-4.5333639502e-05 -3.3763745113e-05 -0.00037259682025 -5.3114394307e-05 -3.0701626115e-05 -5.3927738804e-06 2.5510220544e-05 6.5920549342e-05 0.00011908252734 
0.00017154127437 0.0002098222216 -2.3918273881e-05 -3.0815939182e-05 -3.5909269744e-05 -4.0387464899e-05 -4.4324021638e-05 -4.7525141659e-05 -4.9694454315e-05 
-5.0544877244e-05 -4.991799424e-05 -4.7844781981e-05 -4.5261919434e-05 -0.00021480246292 -0.00014363223676 -7.5122208037e-05 -1.8459265203e-05 3.8066653744e-05 
9.5177134035e-05 0.00014853655203 0.00019666385135 0.00022827386775 -1.7833378323e-05 -2.5902268022e-05 -3.1495327868e-05 -3.6620163353e-05 -4.1346098073e-05 
-4.5334481672e-05 -4.8238925549e-05 -4.9870297038e-05 -5.0403940176e-05 -5.0586572814e-05 -5.3183812685e-05 -0.00015332014523 -0.00012938712365 -9.8358349365e-05 
-4.001790317e-05 2.6252730894e-05 9.1890370997e-05 0.00014862217538 0.00018612946456 0.00021113517595 -9.9813430428e-06 -1.9274902059e-05 -2.552065737e-05 
-3.1473824022e-05 -3.7138361794e-05 -4.2108045539e-05 -4.5963320783e-05 -4.8582270838e-05 -5.0336848025e-05 -5.2393280362e-05 -6.0070610871e-05 -0.00011070510025 
-0.0001096103698 -9.5904822683e-05 -5.2340360124e-05 1.0803376788e-05 7.5242706043e-05 0.00012827346138 0.00016287147655 0.00018017044631 -1.6902658864e-06 
-1.2159291627e-05 -1.9005472506e-05 -2.5740765521e-05 -3.2316332195e-05 -3.8227245452e-05 -4.3005335214e-05 -4.6594287957e-05 -4.9346606527e-05 -5.2137299836e-05 
-6.7934144077e-05 -7.2655945159e-05 -8.7511033883e-05 -8.3550794442e-05 -5.1185691322e-05 3.5157794974e-06 6.1228230131e-05 0.0001087580785 0.00013941731231 
0.00015030007435 5.3006974476e-06 -6.3054306246e-06 -1.3514012807e-05 -2.0768722088e-05 -2.7981084086e-05 -3.4494868508e-05 -3.9841839691e-05 -4.4162111662e-05 
-4.7955392314e-05 -5.2426304989e-05 -6.0726230902e-05 -6.1417163367e-05 -4.5043453567e-05 -3.5281805915e-05 -2.849007864e-05 -2.4064911583e-05 -2.2072720163e-05 
-2.3402987694e-05 -5.3371715372e-05 -6.6951396201e-05 -6.3551238932e-05 -3.6297773322e-05 9.3423144092e-06 5.8060836988e-05 9.8323736866e-05 0.00012370807357 
0.00012836568275 8.9419438637e-06 -4.0397506977e-06 -1.1069901343e-05 -1.8306044674e-05 -2.569306451e-05 -3.198604523e-05 -3.7174208449e-05 -4.1490637776e-05 
-4.5342037541e-05 -4.9290216625e-05 -5.3519941548e-05 -5.4336520012e-05 -4.5923891572e-05 -3.7484863131e-05 -3.1014576025e-05 -2.6837232492e-05 -2.5448219682e-05 
-2.8123901888e-05 -3.950557833e-05 -4.6282332275e-05 -3.7434563969e-05 -1.1482990106e-05 2.6653053398e-05 6.5754475728e-05 9.7761210384e-05 0.00011675480635 
0.00011595341532 7.7241132262e-06 -6.36296841e-06 -1.3296429494e-05 -2.0069781764e-05 -2.6523978356e-05 -3.1705526602e-05 -3.5884927723e-05 -3.9342973637e-05 
-4.2327981455e-05 -4.4960189561e-05 -4.6846434391e-05 -4.6284829024e-05 -4.1627575186e-05 -3.5676059113e-05 -3.0202326627e-05 -2.6052834533e-05 -2.3779100495e-05 
-2.3763950379e-05 -2.5417115417e-05 -2.207264497e-05 -7.8978650953e-06 1.7319841139e-05 4.9375688123e-05 7.9993253135e-05 0.00010394297483 0.00011656550559 
0.00011202811853 1.2451166593e-07 -1.5968457581e-05 -2.1237548854e-05 -2.6174400768e-05 -3.0480845783e-05 -3.3744529756e-05 -3.6314043151e-05 -3.8404728136e-05 
-4.0113357461e-05 -4.1374816033e-05 -4.1830989927e-05 -4.0721493675e-05 -3.7497241311e-05 -3.2946896834e-05 -2.7958784101e-05 -2.3111590454e-05 -1.8634689236e-05 
-1.4196888216e-05 -8.2876757719e-06 2.5241443546e-06 2.0795368436e-05 4.5682529266e-05 7.3055584063e-05 9.6361915681e-05 0.00011290821727 0.00011934598609 
0.00011352177089 -1.4009618264e-05 -3.2785159614e-05 -3.3171624683e-05 -3.444565252e-05 -3.5818173075e-05 -3.692056891e-05 -3.7885285689e-05 -3.8684205449e-05 
-3.9254568386e-05 -3.9440964707e-05 -3.8980820117e-05 -3.7472549849e-05 -3.4633581698e-05 -3.0552793511e-05 -2.5440016574e-05 -1.9402153708e-05 -1.2304722837e-05 
-3.5993500843e-06 7.8675912598e-06 2.3674945941e-05 4.4466917677e-05 6.8603392728e-05 9.2116043715e-05 0.00010970848011 0.0001202820056 0.00012241286998 
0.00011729442815 -3.9414300259e-05 -5.4571294575e-05 -4.5115519808e-05 -4.1105774088e-05 -3.9717489828e-05 -3.9396242283e-05 -3.9500343753e-05 -3.9670139736e-05 
-3.9632403024e-05 -3.9242423578e-05 -3.8321578404e-05 -3.6533315377e-05 -3.3682617623e-05 -2.961480454e-05 -2.41655676e-05 -1.7073687775e-05 -7.9327162415e-06 
3.8263384683e-06 1.8877908071e-05 3.7699767308e-05 5.9834357661e-05 8.3096158853e-05 0.00010345279257 0.00011779141826 0.000124784556 0.00012517732922 
0.00012175393675 -0.00013741939332 -7.0383362115e-05 -4.5798323896e-05 -4.044819728e-05 -3.9911835601e-05 -4.0409719421e-05 -4.1055696926e-05 -4.1560961863e-05 
-4.173977756e-05 -4.1448815933e-05 -4.0509462661e-05 -3.8702722421e-05 -3.5882372375e-05 -3.1888486913e-05 -2.6429705478e-05 -1.9022297797e-05 -8.9872204741e-06 
4.4443612108e-06 2.1897478868e-05 4.3450360277e-05 6.8064493771e-05 9.3094545585e-05 0.00011443735811 0.00012798967948 0.00013235978493 0.00012977788536 
0.00012575076787 
VECTORS velocity double
0.00020684984751 0.00020684984751 0 0.00045601475121 4.2315056197e-05 0 0.00048967353606 -8.6562713495e-06 0 
0.00045218747038 -2.8829794332e-05 0 0.00038709380074 -3.6263875303e-05 0 0.00031379349505 -3.7036430387e-05 0 
0.00024268875134 -3.406831333e-05 0 0.0001797272787 -2.8893159302e-05 0 0.00012818466659 -2.2649452814e-05 0 
8.8769228536e-05 -1.6765985238e-05 0 5.9947198717e-05 -1.2056044581e-05 0 3.8924654862e-05 -8.9664992726e-06 0 
2.3515646543e-05 -6.4425090474e-06 0 1.2600093709e-05 -4.4730437857e-06 0 5.0821568909e-06 -3.0448930329e-06 0 
-1.3746669864e-07 -2.1747305567e-06 0 -4.218986753e-06 -1.9067894977e-06 0 -8.4589824678e-06 -2.3332062171e-06 0 
-1.4322790423e-05 -3.530601738e-06 0 -2.301550692e-05 -5.1621147587e-06 0 -3.446681047e-05 -6.2891887922e-06 0 
-4.6250866558e-05 -5.4948672955e-06 0 -5.3276228308e-05 -1.5304944545e-06 0 -4.9559641522e-05 5.2470812409e-06 0 
-3.3016034174e-05 1.1296526106e-05 0 -1.1251815477e-05 1.0467692591e-05 0 -3.9206144311e-07 3.9206144311e-07 0 
0.00010045670757 0.00051415640258 0 0.00028960395585 0.00017332065311 0 0.00042411420958 2.8507170327e-05 0 
0.00048792353437 -3.9669976903e-05 0 0.00050526144002 -7.3179456719e-05 0 0.00049107561778 -8.76069769e-05 0 
0.00045517711216 -9.0501016159e-05 0 0.00040460721215 -8.5991829112e-05 0 0.0003447650148 -7.6935592467e-05 0 
0.00028044361204 -6.6216686406e-05 0 0.0002161387227 -5.5732262566e-05 0 0.00015703046175 -4.5421086092e-05 0 
0.00010779118819 -3.4636204113e-05 0 6.9453895329e-05 -2.5532194414e-05 0 4.0356880421e-05 -1.860069413e-05 0 
1.8096369903e-05 -1.4099063567e-05 0 -8.4596559473e-09 -1.2168806101e-05 0 -1.6716802905e-05 -1.3019528577e-05 0 
-3.4825170182e-05 -1.681645461e-05 0 -5.6240035402e-05 -2.1983843602e-05 0 -8.0155718072e-05 -2.483444617e-05 0 
-0.00010189769074 -2.0475638676e-05 0 -0.00011347113064 -5.1485247203e-06 0 -0.00010649678015 1.9556048778e-05 0 
-7.7941283619e-05 4.2086662453e-05 0 -3.7410123829e-05 4.1972934732e-05 0 -8.1862871394e-06 8.9704100256e-06 0 
4.4181529917e-05 0.00065879464007 0 0.0001453281897 0.00031897632369 0 0.00025458102313 0.00012661458691 0 
0.00034332621415 1.4777122318e-05 0 0.00040236866238 -5.1246202065e-05 0 0.00043535817949 -9.0736536682e-05 0 
0.00044548770353 -0.00011314043796 0 0.00043551174594 -0.00012389826492 0 0.00040797014177 -0.00012641295818 0 
0.00036575222907 -0.00012327863616 0 0.00031259664126 -0.00011613078995 0 0.00025269235501 -0.00010403510591 0 
0.00019091923132 -8.7034581556e-05 0 0.00013412231875 -6.8268022405e-05 0 8.6571455166e-05 -5.2512744627e-05 0 
4.7720368999e-05 -4.1298609754e-05 0 1.5594191684e-05 -3.5200266788e-05 0 -1.2325160298e-05 -3.4615763122e-05 0 
-3.9572964409e-05 -4.0576391454e-05 0 -6.9445633904e-05 -4.9511441474e-05 0 -0.00010191452411 -5.3691421177e-05 0 
-0.0001323028899 -4.3749002129e-05 0 -0.00015172241547 -1.2868126731e-05 0 -0.00014931820917 3.6654207575e-05 0 
-0.00011768018498 8.5182024373e-05 0 -6.3054879705e-05 9.403403788e-05 0 -1.6015663053e-05 3.3172360218e-05 0 
2.4185793603e-05 0.00072716196359 0 7.8728870393e-05 0.00040629873675 0 0.00014206022424 0.00021187636114 0 
0.00020812830743 8.4328622303e-05 0 0.00026907702637 -8.0653488412e-07 0 0.00031824260206 -5.9021111063e-05 0 
0.00035344168361 -9.9527257985e-05 0 0.00037307358751 -0.00012785549858 0 0.00037620983356 -0.00014686108264 0 
0.00036273922292 -0.00015851903504 0 0.00033338552514 -0.00016339967665 0 0.0002901482124 -0.00015990781819 0 
0.00023736480279 -0.00014571840257 0 0.00018116267819 -0.00012258323856 0 0.00012740186606 -9.9509204175e-05 0 
7.9469806413e-05 -8.108529602e-05 0 3.8339425967e-05 -6.8670138283e-05 0 4.4283069412e-06 -6.2976362636e-05 0 
-2.6168609429e-05 -7.006051242e-05 0 -5.9522540222e-05 -8.3253920796e-05 0 -9.725082883e-05 -9.0146120671e-05 0 
-0.00013595620131 -7.6388040908e-05 0 -0.00016692004382 -3.0612456018e-05 0 -0.00017657194728 4.71508397e-05 0 
-0.00015147520274 0.00013142016097 0 -9.1050687716e-05 0.00016284572158 0 -2.6631278807e-05 7.5819302078e-05 0 
1.3110508314e-05 0.00076445826551 0 4.2542868967e-05 0.00045297787227 0 7.5750457712e-05 0.0002617361682 0 
0.00011313178069 0.0001379182214 0 0.00015708010424 5.0500908508e-05 0 0.00020403938967 -1.4203693337e-05 0 
0.00024765486526 -6.5530118564e-05 0 0.00028267632081 -0.00010719927855 0 0.00030623895657 -0.00014081842086 0 
0.00031582587427 -0.00016844538976 0 0.00030847511293 -0.00019017778106 0 0.00028234560191 -0.00020249653754 0 
0.00024302445944 -0.00019523423531 0 0.00019817006548 -0.0001741239244 0 0.00015121678737 -0.00014868260858 0 
0.00010534735078 -0.00012571338785 0 6.4355689801e-05 -0.00010616408787 0 3.4612485059e-05 -8.9136736814e-05 0 
9.3481850395e-06 -9.9761354632e-05 0 -2.279607306e-05 -0.00011905126748 0 -6.1775811336e-05 -0.00013105680087 0 
-0.00010530191232 -0.00011770883417 0 -0.00014634927795 -6.1302870891e-05 0 -0.00017014744801 4.4391181051e-05 0 