# vtk DataFile Version 4.2
vtk output
ASCII
DATASET POLYDATA
POINTS 441 float
0 0 0 0.01 0 0 0.01 0.01 0 
0 0.01 0 0.02 0 0 0.02 0.01 0 
0.03 0 0 0.03 0.01 0 0.04 0 0 
0.04 0.01 0 0.05 0 0 0.05 0.01 0 
0.06 0 0 0.06 0.01 0 0.07 0 0 
0.07 0.01 0 0.08 0 0 0.08 0.01 0 
0.09 0 0 0.09 0.01 0 0.1 0 0 
0.1 0.01 0 0.11 0 0 0.11 0.01 0 
0.12 0 0 0.12 0.01 0 0.13 0 0 
0.13 0.01 0 0.14 0 0 0.14 0.01 0 
0.15 0 0 0.15 0.01 0 0.16 0 0 
0.16 0.01 0 0.17 0 0 0.17 0.01 0 
0.18 0 0 0.18 0.01 0 0.19 0 0 
0.19 0.01 0 0.2 0 0 0.2 0.01 0 
0.01 0.02 0 0 0.02 0 0.02 0.02 0 
0.03 0.02 0 0.04 0.02 0 0.05 0.02 0 
0.06 0.02 0 0.07 0.02 0 0.08 0.02 0 
0.09 0.02 0 0.1 0.02 0 0.11 0.02 0 
0.12 0.02 0 0.13 0.02 0 0.14 0.02 0 
0.15 0.02 0 0.16 0.02 0 0.17 0.02 0 
0.18 0.02 0 0.19 0.02 0 0.2 0.02 0 
0.01 0.03 0 0 0.03 0 0.02 0.03 0 
0.03 0.03 0 0.04 0.03 0 0.05 0.03 0 
0.06 0.03 0 0.07 0.03 0 0.08 0.03 0 
0.09 0.03 0 0.1 0.03 0 0.11 0.03 0 
0.12 0.03 0 0.13 0.03 0 0.14 0.03 0 
0.15 0.03 0 0.16 0.03 0 0.17 0.03 0 
0.18 0.03 0 0.19 0.03 0 0.2 0.03 0 
0.01 0.04 0 0 0.04 0 0.02 0.04 0 
0.03 0.04 0 0.04 0.04 0 0.05 0.04 0 
0.06 0.04 0 0.07 0.04 0 0.08 0.04 0 
0.09 0.04 0 0.1 0.04 0 0.11 0.04 0 
0.12 0.04 0 0.13 0.04 0 0.14 0.04 0 
0.15 0.04 0 0.16 0.04 0 0.17 0.04 0 
0.18 0.04 0 0.19 0.04 0 0.2 0.04 0 
0.01 0.05 0 0 0.05 0 0.02 0.05 0 
0.03 0.05 0 0.04 0.05 0 0.05 0.05 0 
0.06 0.05 0 0.07 0.05 0 0.08 0.05 0 
0.09 0.05 0 0.1 0.05 0 0.11 0.05 0 
0.12 0.05 0 0.13 0.05 0 0.14 0.05 0 
0.15 0.05 0 0.16 0.05 0 0.17 0.05 0 
0.18 0.05 0 0.19 0.05 0 0.2 0.05 0 
0.01 0.06 0 0 0.06 0 0.02 0.06 0 
0.03 0.06 0 0.04 0.06 0 0.05 0.06 0 
0.06 0.06 0 0.07 0.06 0 0.08 0.06 0 
0.09 0.06 0 0.1 0.06 0 0.11 0.06 0 
0.12 0.06 0 0.13 0.06 0 0.14 0.06 0 
0.15 0.06 0 0.16 0.06 0 0.17 0.06 0 
0.18 0.06 0 0.19 0.06 0 0.2 0.06 0 
0.01 0.07 0 0 0.07 0 0.02 0.07 0 
0.03 0.07 0 0.04 0.07 0 0.05 0.07 0 
0.06 0.07 0 0.07 0.07 0 0.08 0.07 0 
0.09 0.07 0 0.1 0.07 0 0.11 0.07 0 
0.12 0.07 0 0.13 0.07 0 0.14 0.07 0 
0.15 0.07 0 0.16 0.07 0 0.17 0.07 0 
0.18 0.07 0 0.19 0.07 0 0.2 0.07 0 
0.01 0.08 0 0 0.08 0 0.02 0.08 0 
0.03 0.08 0 0.04 0.08 0 0.05 0.08 0 
0.06 0.08 0 0.07 0.08 0 0.08 0.08 0 
0.09 0.08 0 0.1 0.08 0 0.11 0.08 0 
0.12 0.08 0 0.13 0.08 0 0.14 0.08 0 
0.15 0.08 0 0.16 0.08 0 0.17 0.08 0 
0.18 0.08 0 0.19 0.08 0 0.2 0.08 0 
0.01 0.09 0 0 0.09 0 0.02 0.09 0 
0.03 0.09 0 0.04 0.09 0 0.05 0.09 0 
0.06 0.09 0 0.07 0.09 0 0.08 0.09 0 
0.09 0.09 0 0.1 0.09 0 0.11 0.09 0 
0.12 0.09 0 0.13 0.09 0 0.14 0.09 0 
0.15 0.09 0 0.16 0.09 0 0.17 0.09 0 
0.18 0.09 0 0.19 0.09 0 0.2 0.09 0 
0.01 0.1 0 0 0.1 0 0.02 0.1 0 
0.03 0.1 0 0.04 0.1 0 0.05 0.1 0 
0.06 0.1 0 0.07 0.1 0 0.08 0.1 0 
0.09 0.1 0 0.1 0.1 0 0.11 0.1 0 
0.12 0.1 0 0.13 0.1 0 0.14 0.1 0 
0.15 0.1 0 0.16 0.1 0 0.17 0.1 0 
0.18 0.1 0 0.19 0.1 0 0.2 0.1 0 
0.01 0.11 0 0 0.11 0 0.02 0.11 0 
0.03 0.11 0 0.04 0.11 0 0.05 0.11 0 
0.06 0.11 0 0.07 0.11 0 0.08 0.11 0 
0.09 0.11 0 0.1 0.11 0 0.11 0.11 0 
0.12 0.11 0 0.13 0.11 0 0.14 0.11 0 
0.15 0.11 0 0.16 0.11 0 0.17 0.11 0 
0.18 0.11 0 0.19 0.11 0 0.2 0.11 0 
0.01 0.12 0 0 0.12 0 0.02 0.12 0 
0.03 0.12 0 0.04 0.12 0 0.05 0.12 0 
0.06 0.12 0 0.07 0.12 0 0.08 0.12 0 
0.09 0.12 0 0.1 0.12 0 0.11 0.12 0 
0.12 0.12 0 0.13 0.12 0 0.14 0.12 0 
0.15 0.12 0 0.16 0.12 0 0.17 0.12 0 
0.18 0.12 0 0.19 0.12 0 0.2 0.12 0 
0.01 0.13 0 0 0.13 0 0.02 0.13 0 
0.03 0.13 0 0.04 0.13 0 0.05 0.13 0 
0.06 0.13 0 0.07 0.13 0 0.08 0.13 0 
0.09 0.13 0 0.1 0.13 0 0.11 0.13 0 
0.12 0.13 0 0.13 0.13 0 0.14 0.13 0 
0.15 0.13 0 0.16 0.13 0 0.17 0.13 0 
0.18 0.13 0 0.19 0.13 0 0.2 0.13 0 
0.01 0.14 0 0 0.14 0 0.02 0.14 0 
0.03 0.14 0 0.04 0.14 0 0.05 0.14 0 
0.06 0.14 0 0.07 0.14 0 0.08 0.14 0 
0.09 0.14 0 0.1 0.14 0 0.11 0.14 0 
0.12 0.14 0 0.13 0.14 0 0.14 0.14 0 
0.15 0.14 0 0.16 0.14 0 0.17 0.14 0 
0.18 0.14 0 0.19 0.14 0 0.2 0.14 0 
0.01 0.15 0 0 0.15 0 0.02 0.15 0 
0.03 0.15 0 0.04 0.15 0 0.05 0.15 0 
0.06 0.15 0 0.07 0.15 0 0.08 0.15 0 
0.09 0.15 0 0.1 0.15 0 0.11 0.15 0 
0.12 0.15 0 0.13 0.15 0 0.14 0.15 0 
0.15 0.15 0 0.16 0.15 0 0.17 0.15 0 
0.18 0.15 0 0.19 0.15 0 0.2 0.15 0 
0.01 0.16 0 0 0.16 0 0.02 0.16 0 
0.03 0.16 0 0.04 0.16 0 0.05 0.16 0 
0.06 0.16 0 0.07 0.16 0 0.08 0.16 0 
0.09 0.16 0 0.1 0.16 0 0.11 0.16 0 
0.12 0.16 0 0.13 0.16 0 0.14 0.16 0 
0.15 0.16 0 0.16 0.16 0 0.17 0.16 0 
0.18 0.16 0 0.19 0.16 0 0.2 0.16 0 
0.01 0.17 0 0 0.17 0 0.02 0.17 0 
0.03 0.17 0 0.04 0.17 0 0.05 0.17 0 
0.06 0.17 0 0.07 0.17 0 0.08 0.17 0 
0.09 0.17 0 0.1 0.17 0 0.11 0.17 0 
0.12 0.17 0 0.13 0.17 0 0.14 0.17 0 
0.15 0.17 0 0.16 0.17 0 0.17 0.17 0 
0.18 0.17 0 0.19 0.17 0 0.2 0.17 0 
0.01 0.18 0 0 0.18 0 0.02 0.18 0 
0.03 0.18 0 0.04 0.18 0 0.05 0.18 0 
0.06 0.18 0 0.07 0.18 0 0.08 0.18 0 
0.09 0.18 0 0.1 0.18 0 0.11 0.18 0 
0.12 0.18 0 0.13 0.18 0 0.14 0.18 0 
0.15 0.18 0 0.16 0.18 0 0.17 0.18 0 
0.18 0.18 0 0.19 0.18 0 0.2 0.18 0 
0.01 0.19 0 0 0.19 0 0.02 0.19 0 
0.03 0.19 0 0.04 0.19 0 0.05 0.19 0 
0.06 0.19 0 0.07 0.19 0 0.08 0.19 0 
0.09 0.19 0 0.1 0.19 0 0.11 0.19 0 
0.12 0.19 0 0.13 0.19 0 0.14 0.19 0 
0.15 0.19 0 0.16 0.19 0 0.17 0.19 0 
0.18 0.19 0 0.19 0.19 0 0.2 0.19 0 
0.01 0.2 0 0 0.2 0 0.02 0.2 0 
0.03 0.2 0 0.04 0.2 0 0.05 0.2 0 
0.06 0.2 0 0.07 0.2 0 0.08 0.2 0 
0.09 0.2 0 0.1 0.2 0 0.11 0.2 0 
0.12 0.2 0 0.13 0.2 0 0.14 0.2 0 
0.15 0.2 0 0.16 0.2 0 0.17 0.2 0 
0.18 0.2 0 0.19 0.2 0 0.2 0.2 0 

POLYGONS 400 2000
4 400 399 420 421 
4 399 401 422 420 
4 401 402 423 422 
4 402 403 424 423 
4 403 404 425 424 
4 404 405 426 425 
4 405 406 427 426 
4 406 407 428 427 
4 407 408 429 428 
4 408 409 430 429 
4 409 410 431 430 
4 410 411 432 431 
4 411 412 433 432 
4 412 413 434 433 
4 413 414 435 434 
4 414 415 436 435 
4 415 416 437 436 
4 416 417 438 437 
4 417 418 439 438 
4 418 419 440 439 
4 379 378 399 400 
4 378 380 401 399 
4 380 381 402 401 
4 381 382 403 402 
4 382 383 404 403 
4 383 384 405 404 
4 384 385 406 405 
4 385 386 407 406 
4 386 387 408 407 
4 387 388 409 408 
4 388 389 410 409 
4 389 390 411 410 
4 390 391 412 411 
4 391 392 413 412 
4 392 393 414 413 
4 393 394 415 414 
4 394 395 416 415 
4 395 396 417 416 
4 396 397 418 417 
4 397 398 419 418 
4 358 357 378 379 
4 357 359 380 378 
4 359 360 381 380 
4 360 361 382 381 
4 361 362 383 382 
4 362 363 384 383 
4 363 364 385 384 
4 364 365 386 385 
4 365 366 387 386 
4 366 367 388 387 
4 367 368 389 388 
4 368 369 390 389 
4 369 370 391 390 
4 370 371 392 391 
4 371 372 393 392 
4 372 373 394 393 
4 373 374 395 394 
4 374 375 396 395 
4 375 376 397 396 
4 376 377 398 397 
4 337 336 357 358 
4 336 338 359 357 
4 338 339 360 359 
4 339 340 361 360 
4 340 341 362 361 
4 341 342 363 362 
4 342 343 364 363 
4 343 344 365 364 
4 344 345 366 365 
4 345 346 367 366 
4 346 347 368 367 
4 347 348 369 368 
4 348 349 370 369 
4 349 350 371 370 
4 350 351 372 371 
4 351 352 373 372 
4 352 353 374 373 
4 353 354 375 374 
4 354 355 376 375 
4 355 356 377 376 
4 316 315 336 337 
4 315 317 338 336 
4 317 318 339 338 
4 318 319 340 339 
4 319 320 341 340 
4 320 321 342 341 
4 321 322 343 342 
4 322 323 344 343 
4 323 324 345 344 
4 324 325 346 345 
4 325 326 347 346 
4 326 327 348 347 
4 327 328 349 348 
4 328 329 350 349 
4 329 330 351 350 
4 330 331 352 351 
4 331 332 353 352 
4 332 333 354 353 
4 333 334 355 354 
4 334 335 356 355 
4 295 294 315 316 
4 294 296 317 315 
4 296 297 318 317 
4 297 298 319 318 
4 298 299 320 319 
4 299 300 321 320 
4 300 301 322 321 
4 301 302 323 322 
4 302 303 324 323 
4 303 304 325 324 
4 304 305 326 325 
4 305 306 327 326 
4 306 307 328 327 
4 307 308 329 328 
4 308 309 330 329 
4 309 310 331 330 
4 310 311 332 331 
4 311 312 333 332 
4 312 313 334 333 
4 313 314 335 334 
4 274 273 294 295 
4 273 275 296 294 
4 275 276 297 296 
4 276 277 298 297 
4 277 278 299 298 
4 278 279 300 299 
4 279 280 301 300 
4 280 281 302 301 
4 281 282 303 302 
4 282 283 304 303 
4 283 284 305 304 
4 284 285 306 305 
4 285 286 307 306 
4 286 287 308 307 
4 287 288 309 308 
4 288 289 310 309 
4 289 290 311 310 
4 290 291 312 311 
4 291 292 313 312 
4 292 293 314 313 
4 253 252 273 274 
4 252 254 275 273 
4 254 255 276 275 
4 255 256 277 276 
4 256 257 278 277 
4 257 258 279 278 
4 258 259 280 279 
4 259 260 281 280 
4 260 261 282 281 
4 261 262 283 282 
4 262 263 284 283 
4 263 264 285 284 
4 264 265 286 285 
4 265 266 287 286 
4 266 267 288 287 
4 267 268 289 288 
4 268 269 290 289 
4 269 270 291 290 
4 270 271 292 291 
4 271 272 293 292 
4 232 231 252 253 
4 231 233 254 252 
4 233 234 255 254 
4 234 235 256 255 
4 235 236 257 256 
4 236 237 258 257 
4 237 238 259 258 
4 238 239 260 259 
4 239 240 261 260 
4 240 241 262 261 
4 241 242 263 262 
4 242 243 264 263 
4 243 244 265 264 
4 244 245 266 265 
4 245 246 267 266 
4 246 247 268 267 
4 247 248 269 268 
4 248 249 270 269 
4 249 250 271 270 
4 250 251 272 271 
4 211 210 231 232 
4 210 212 233 231 
4 212 213 234 233 
4 213 214 235 234 
4 214 215 236 235 
4 215 216 237 236 
4 216 217 238 237 
4 217 218 239 238 
4 218 219 240 239 
4 219 220 241 240 
4 220 221 242 241 
4 221 222 243 242 
4 222 223 244 243 
4 223 224 245 244 
4 224 225 246 245 
4 225 226 247 246 
4 226 227 248 247 
4 227 228 249 248 
4 228 229 250 249 
4 229 230 251 250 
4 190 189 210 211 
4 189 191 212 210 
4 191 192 213 212 
4 192 193 214 213 
4 193 194 215 214 
4 194 195 216 215 
4 195 196 217 216 
4 196 197 218 217 
4 197 198 219 218 
4 198 199 220 219 
4 199 200 221 220 
4 200 201 222 221 
4 201 202 223 222 
4 202 203 224 223 
4 203 204 225 224 
4 204 205 226 225 
4 205 206 227 226 
4 206 207 228 227 
4 207 208 229 228 
4 208 209 230 229 
4 169 168 189 190 
4 168 170 191 189 
4 170 171 192 191 
4 171 172 193 192 
4 172 173 194 193 
4 173 174 195 194 
4 174 175 196 195 
4 175 176 197 196 
4 176 177 198 197 
4 177 178 199 198 
4 178 179 200 199 
4 179 180 201 200 
4 180 181 202 201 
4 181 182 203 202 
4 182 183 204 203 
4 183 184 205 204 
4 184 185 206 205 
4 185 186 207 206 
4 186 187 208 207 
4 187 188 209 208 
4 148 147 168 169 
4 147 149 170 168 
4 149 150 171 170 
4 150 151 172 171 
4 151 152 173 172 
4 152 153 174 173 
4 153 154 175 174 
4 154 155 176 175 
4 155 156 177 176 
4 156 157 178 177 
4 157 158 179 178 
4 158 159 180 179 
4 159 160 181 180 
4 160 161 182 181 
4 161 162 183 182 
4 162 163 184 183 
4 163 164 185 184 
4 164 165 186 185 
4 165 166 187 186 
4 166 167 188 187 
4 127 126 147 148 
4 126 128 149 147 
4 128 129 150 149 
4 129 130 151 150 
4 130 131 152 151 
4 131 132 153 152 
4 132 133 154 153 
4 133 134 155 154 
4 134 135 156 155 
4 135 136 157 156 
4 136 137 158 157 
4 137 138 159 158 
4 138 139 160 159 
4 139 140 161 160 
4 140 141 162 161 
4 141 142 163 162 
4 142 143 164 163 
4 143 144 165 164 
4 144 145 166 165 
4 145 146 167 166 
4 106 105 126 127 
4 105 107 128 126 
4 107 108 129 128 
4 108 109 130 129 
4 109 110 131 130 
4 110 111 132 131 
4 111 112 133 132 
4 112 113 134 133 
4 113 114 135 134 
4 114 115 136 135 
4 115 116 137 136 
4 116 117 138 137 
4 117 118 139 138 
4 118 119 140 139 
4 119 120 141 140 
4 120 121 142 141 
4 121 122 143 142 
4 122 123 144 143 
4 123 124 145 144 
4 124 125 146 145 
4 85 84 105 106 
4 84 86 107 105 
4 86 87 108 107 
4 87 88 109 108 
4 88 89 110 109 
4 89 90 111 110 
4 90 91 112 111 
4 91 92 113 112 
4 92 93 114 113 
4 93 94 115 114 
4 94 95 116 115 
4 95 96 117 116 
4 96 97 118 117 
4 97 98 119 118 
4 98 99 120 119 
4 99 100 121 120 
4 100 101 122 121 
4 101 102 123 122 
4 102 103 124 123 
4 103 104 125 124 
4 64 63 84 85 
4 63 65 86 84 
4 65 66 87 86 
4 66 67 88 87 
4 67 68 89 88 
4 68 69 90 89 
4 69 70 91 90 
4 70 71 92 91 
4 71 72 93 92 
4 72 73 94 93 
4 73 74 95 94 
4 74 75 96 95 
4 75 76 97 96 
4 76 77 98 97 
4 77 78 99 98 
4 78 79 100 99 
4 79 80 101 100 
4 80 81 102 101 
4 81 82 103 102 
4 82 83 104 103 
4 43 42 63 64 
4 42 44 65 63 
4 44 45 66 65 
4 45 46 67 66 
4 46 47 68 67 
4 47 48 69 68 
4 48 49 70 69 
4 49 50 71 70 
4 50 51 72 71 
4 51 52 73 72 
4 52 53 74 73 
4 53 54 75 74 
4 54 55 76 75 
4 55 56 77 76 
4 56 57 78 77 
4 57 58 79 78 
4 58 59 80 79 
4 59 60 81 80 
4 60 61 82 81 
4 61 62 83 82 
4 3 2 42 43 
4 2 5 44 42 
4 5 7 45 44 
4 7 9 46 45 
4 9 11 47 46 
4 11 13 48 47 
4 13 15 49 48 
4 15 17 50 49 
4 17 19 51 50 
4 19 21 52 51 
4 21 23 53 52 
4 23 25 54 53 
4 25 27 55 54 
4 27 29 56 55 
4 29 31 57 56 
4 31 33 58 57 
4 33 35 59 58 
4 35 37 60 59 
4 37 39 61 60 
4 39 41 62 61 
4 0 1 2 3 
4 1 4 5 2 
4 4 6 7 5 
4 6 8 9 7 
4 8 10 11 9 
4 10 12 13 11 
4 12 14 15 13 
4 14 16 17 15 
4 16 18 19 17 
4 18 20 21 19 
4 20 22 23 21 
4 22 24 25 23 
4 24 26 27 25 
4 26 28 29 27 
4 28 30 31 29 
4 30 32 33 31 
4 32 34 35 33 
4 34 36 37 35 
4 36 38 39 37 
4 38 40 41 39 

CELL_DATA 400
SCALARS pressure double
LOOKUP_TABLE default
-0.00011788576175 -1.901830126e-05 3.8606436844e-06 1.2835221865e-05 1.5039001627e-05 1.2308268445e-05 6.2538301249e-06 -2.416642679e-06 -1.2410738511e-05 
-2.2411383747e-05 -3.1090447619e-05 -3.6961150139e-05 -3.8357783576e-05 -3.3276037751e-05 -1.9068370437e-05 8.0711831196e-06 5.4029662832e-05 0.00012898626125 
0.00025583072877 0.00047711086408 -5.2455354875e-05 -3.5638647347e-05 -1.6325803993e-05 -4.3969434747e-06 3.474373421e-07 -6.8980202315e-07 -4.908995712e-06 
-1.2353934325e-05 -2.1307511763e-05 -3.0359636919e-05 -3.8203464452e-05 -4.3325380881e-05 -4.410586132e-05 -3.865128508e-05 -2.4523914817e-05 1.6507040296e-06 
4.4603095902e-05 0.00011073723549 0.00020678252051 0.00034120081347 -2.8033213941e-05 -2.6492005595e-05 -1.6621636794e-05 -9.0407773714e-06 -5.722872999e-06 
-6.7982675888e-06 -1.1274408559e-05 -1.8434294514e-05 -2.7176122055e-05 -3.5930022724e-05 -4.3733418226e-05 -4.9050350574e-05 -5.0451979023e-05 -4.6382284233e-05 
-3.5001159896e-05 -1.4018994763e-05 1.9947692136e-05 6.7145209144e-05 0.00013231986524 0.00018803708224 -1.9861628644e-05 -2.032953645e-05 -1.5738813924e-05 
-1.1596457736e-05 -1.0124550959e-05 -1.1972375628e-05 -1.6785533508e-05 -2.392113519e-05 -3.2442576459e-05 -4.1103332466e-05 -4.8777050809e-05 -5.4232539915e-05 
-5.6233418917e-05 -5.3568163082e-05 -4.492858938e-05 -2.8666009922e-05 -2.5384864367e-06 3.3204150911e-05 7.6013951897e-05 9.888668532e-05 -1.5260090636e-05 
-1.5670073508e-05 -1.3972617621e-05 -1.2532957272e-05 -1.291146645e-05 -1.5771052715e-05 -2.1082893357e-05 -2.8339880935e-05 -3.677446221e-05 -4.5331718934e-05 
-5.289601634e-05 -5.835262239e-05 -6.0660104963e-05 -5.8845541516e-05 -5.1881855238e-05 -3.8472446563e-05 -1.8274331505e-05 9.4304207205e-06 3.8804151777e-05 
4.645540008e-05 -1.1213986846e-05 -1.1566458025e-05 -1.1419169496e-05 -1.1822916974e-05 -1.3733357538e-05 -1.7618233428e-05 -2.3500606169e-05 -3.0974185842e-05 
-3.9399872824e-05 -4.7848843806e-05 -5.5259939893e-05 -6.0602372905e-05 -6.2953861939e-05 -6.1489707936e-05 -5.5376417112e-05 -4.3727030055e-05 -2.6588817819e-05 
-4.5449270447e-06 1.6223068078e-05 1.5898430339e-05 -7.0186919294e-06 -7.528301146e-06 -8.2335543938e-06 -9.746462036e-06 -1.2657512226e-05 -1.7258379136e-05 
-2.3548002197e-05 -3.1204297028e-05 -3.9595316963e-05 -4.7871929389e-05 -5.5032644538e-05 -6.0098590055e-05 -6.2198883967e-05 -6.0569366823e-05 -5.4481984672e-05 
-4.3693646385e-05 -2.8408215831e-05 -1.0564133855e-05 3.9643000923e-06 -6.3169138841e-07 -2.5464507067e-06 -3.3530194075e-06 -4.5112144898e-06 -6.5953406685e-06 
-9.9926935183e-06 -1.4895476593e-05 -2.1267115996e-05 -2.8816545772e-05 -3.6970890857e-05 -4.4861569691e-05 -5.1549014544e-05 -5.6085664593e-05 -5.7619994008e-05 
-5.5446960587e-05 -4.9061767448e-05 -3.8733826994e-05 -2.4935848468e-05 -1.0688497058e-05 -1.3327952368e-06 -8.5663311409e-06 2.1093855345e-06 9.5793100868e-07 
-3.9153221951e-07 -2.6914011022e-06 -6.1364190775e-06 -1.092278345e-05 -1.6976023841e-05 -2.4082104285e-05 -3.1602776399e-05 -3.8758974714e-05 -4.4650664533e-05 
-4.8360861957e-05 -4.9063960128e-05 -4.6177272618e-05 -3.9535942145e-05 -2.9619020308e-05 -1.7637774087e-05 -6.7752925879e-06 -1.5023048347e-06 -9.4488657715e-06 
6.7328240782e-06 5.2613892639e-06 3.9014108124e-06 1.7121324506e-06 -1.5353021962e-06 -5.8755047224e-06 -1.1282740965e-05 -1.7508102649e-05 -2.4012842433e-05 
-3.0079565919e-05 -3.4869205707e-05 -3.7540236263e-05 -3.7290522849e-05 -3.3745588419e-05 -2.7047575338e-05 -1.8089557696e-05 -8.4318350681e-06 -7.3781911016e-07 
1.8161708677e-06 -5.5087111691e-06 1.1051418146e-05 9.3348571389e-06 8.0766503341e-06 6.177578148e-06 3.4154421265e-06 -2.6321703819e-07 -4.7815380068e-06 
-9.8843288892e-06 -1.5112237012e-05 -1.9855609574e-05 -2.3367028069e-05 -2.4776429543e-05 -2.3608795596e-05 -1.9795009704e-05 -1.3743354011e-05 -6.5274795835e-06 
7.027128859e-07 5.4372105259e-06 5.8020380706e-06 -1.8374854359e-07 1.4803060644e-05 1.2944346717e-05 1.1842636978e-05 1.0300767402e-05 8.1073658902e-06 
5.2140715797e-06 1.7109727329e-06 -2.1608301265e-06 -6.001826746e-06 -9.3311718162e-06 -1.1473810212e-05 -1.1886664846e-05 -1.0271947871e-05 -6.7046810771e-06 
-1.7259311066e-06 3.7209684055e-06 8.5076259284e-06 1.0733386125e-05 9.3387388958e-06 4.8107417791e-06 1.7790618255e-05 1.5903212797e-05 1.4973267099e-05 
1.3788044267e-05 1.2153954931e-05 1.0031063526e-05 7.5086116844e-06 4.8021416359e-06 2.250412789e-06 2.3870593233e-07 -8.5586665969e-07 -6.0452752134e-07 
1.0934025239e-06 4.0281460925e-06 7.5794641393e-06 1.1379159534e-05 1.3870395458e-05 1.4029731765e-05 1.2299274581e-05 9.0054783296e-06 1.9915196218e-05 
1.810953762e-05 1.7342324044e-05 1.6469394087e-05 1.5320794167e-05 1.3862604165e-05 1.2173556378e-05 1.0432356371e-05 8.9007907862e-06 7.8890780595e-06 
7.5687155895e-06 8.1502036662e-06 9.6341569138e-06 1.1781003739e-05 1.4232036901e-05 1.620416733e-05 1.6996347969e-05 1.632962828e-05 1.468750539e-05 
1.2368772898e-05 2.118511674e-05 1.9559256167e-05 1.893480098e-05 1.8309762367e-05 1.7542884587e-05 1.6604180088e-05 1.5556180163e-05 1.4536736059e-05 
1.373372686e-05 1.3341177523e-05 1.3488676594e-05 1.4232665151e-05 1.5477118353e-05 1.6960581644e-05 1.8305571805e-05 1.9054031318e-05 1.891505207e-05 
1.7945236099e-05 1.657797721e-05 1.5006976559e-05 2.1702754976e-05 2.0336248751e-05 1.9832004995e-05 1.9386918663e-05 1.8893848373e-05 1.8328165741e-05 
1.7736172653e-05 1.7218386909e-05 1.6903753275e-05 1.6911229307e-05 1.7303465099e-05 1.8054271979e-05 1.9020047305e-05 1.9954033976e-05 2.0568804642e-05 
2.0629382926e-05 2.0084648518e-05 1.9115731281e-05 1.8060410908e-05 1.7054931328e-05 2.1638575869e-05 2.0587594253e-05 2.0179910278e-05 1.9850170511e-05 
1.9531684054e-05 1.921062233e-05 1.892200505e-05 1.8736364348e-05 1.8737261435e-05 1.8989819767e-05 1.950556622e-05 2.0216006972e-05 2.0966130418e-05 
2.154548032e-05 2.1757155205e-05 2.150278943e-05 2.084647474e-05 1.9996668872e-05 1.9210150083e-05 1.8629998088e-05 2.120436945e-05 2.0493346621e-05 
2.0151453044e-05 1.9874787508e-05 1.9643667833e-05 1.9462361411e-05 1.936210332e-05 1.9392615252e-05 1.9604320045e-05 2.0023781112e-05 2.062775465e-05 
2.1326212773e-05 2.19672282e-05 2.2374376488e-05 2.2412083045e-05 2.2052775024e-05 2.1405587715e-05 2.0674832886e-05 2.0072013679e-05 1.9799397967e-05 
2.063729061e-05 2.0237232597e-05 1.9909955557e-05 1.9621189847e-05 1.9401896332e-05 1.9278603619e-05 1.9285009985e-05 1.9459553144e-05 1.9831597777e-05 
2.0401337186e-05 2.1120167999e-05 2.188111739e-05 2.2530393942e-05 2.2906870743e-05 2.2902493341e-05 2.2517904715e-05 2.1878033985e-05 2.1188297797e-05 
2.0655036655e-05 2.0554408e-05 2.0267179385e-05 1.9897412628e-05 1.9367563299e-05 1.8911602101e-05 1.8592685201e-05 1.8442717324e-05 1.8500063479e-05 
1.8810872413e-05 1.9408214914e-05 2.028303377e-05 2.1358864035e-05 2.2482211488e-05 2.3440157036e-05 2.4011377784e-05 2.4042286038e-05 2.3520488697e-05 
2.2606146238e-05 2.1594889877e-05 2.0825959362e-05 2.0691337967e-05 
VECTORS velocity double
0.00010894107476 0.00010894107476 0 0.00028872825306 7.0846103542e-05 0 0.00040761207096 4.8037714355e-05 0 
0.00049188549646 3.6235711149e-05 0 0.00055750778916 2.9386581549e-05 0 0.00061146680925 2.4572438546e-05 0 
0.00065705554995 2.1016302152e-05 0 0.00069593675556 1.7864903456e-05 0 0.0007287108808 1.490922178e-05 0 
0.00075564607444 1.2025971866e-05 0 0.00077673081763 9.0587713239e-06 0 0.00079168401887 5.8944299153e-06 0 
0.0007999508269 2.3723781149e-06 0 0.00080054002545 -1.7831795636e-06 0 0.00079170207645 -7.0547694379e-06 0 
0.00077033081781 -1.4316489206e-05 0 0.00073068576065 -2.5328567947e-05 0 0.00066036691268 -4.4990280031e-05 0 
0.00051454786435 -0.0001008287683 0 0.00020685954803 -0.00020685954803 0 -4.4077284018e-05 0.0001738048655 0 
-6.7422377736e-05 0.00016242439738 0 -1.0496384484e-05 0.00013226923166 0 6.29586908e-05 0.00010973269463 0 
0.00013550238251 9.405558248e-05 0 0.00020386722922 8.2227304411e-05 0 0.00026656556762 7.1648515393e-05 0 
0.00032235687297 6.1905201168e-05 0 0.00037128731094 5.2573487273e-05 0 0.0004132062903 4.3215879388e-05 0 
0.00044757744205 3.3324758734e-05 0 0.00047362354379 2.2627745492e-05 0 0.00049033617667 1.0618503442e-05 0 
0.00049615875547 -3.6175275312e-06 0 0.00048853451084 -2.1682615106e-05 0 0.00046314497213 -4.6449440889e-05 0 
0.00041343957212 -8.2546073435e-05 0 0.00032316428843 -0.00014836690621 0 0.00017517928334 -0.00029125619554 0 
4.2790312197e-05 -0.00045650940825 0 -2.169666409e-05 0.00010803091739 0 -5.1032667939e-05 0.00017551724792 0 
-4.8340054592e-05 0.00017879498772 0 -1.8187515644e-05 0.0001668145528 0 2.5026118885e-05 0.00015273105055 0 
7.2275881938e-05 0.0001391664461 0 0.00011955322937 0.00012468505954 0 0.00016496067128 0.00011006740428 0 
0.00020668686076 9.5067911611e-05 0 0.00024282741723 7.8780990889e-05 0 0.00027182859102 6.1131972764e-05 0 
0.00029283535296 4.1873395156e-05 0 0.00030490076193 2.0150895616e-05 0 0.00030663493831 -5.5931645171e-06 0 
0.00029591528629 -3.8050874776e-05 0 0.00026896461102 -8.2421395197e-05 0 0.00021615579175 -0.00014908833841 0 
0.00012831020373 -0.00025994551294 0 2.8983925945e-05 -0.00042698887168 0 -8.575045624e-06 -0.00049072467482 0 
-8.0723736129e-06 7.8261879688e-05 0 -2.1573535519e-05 0.00016244911987 0 -2.3658220432e-05 0.00019247104421 0 
-1.0063417737e-05 0.00019688583796 0 1.4358815792e-05 0.00019029563345 0 4.4350193103e-05 0.00017884300356 0 
7.6316117651e-05 0.00016425177406 0 0.0001077823291 0.00014737434312 0 0.00013654207723 0.00012824691038 0 
0.0001609478569 0.00010614832826 0 0.00017967702146 8.149497374e-05 0 0.00019135135163 5.4191486297e-05 0 
0.00019474611924 2.3292981054e-05 0 0.00018852046627 -1.322672655e-05 0 0.00017053916996 -5.9118261073e-05 0 
0.00013694853974 -0.00012189531439 0 8.1823363789e-05 -0.00021754841443 0 1.1545044353e-05 -0.00034960934438 0 
-4.2160680365e-05 -0.00049035704274 0 -2.9697417117e-05 -0.00045245221208 0 -2.5132021836e-06 6.7676303891e-05 0 
-7.4548388803e-06 0.00015459189707 0 -8.4065385018e-06 0.00019729188248 0 -1.4957301495e-06 0.00021257061073 0 
1.2260467902e-05 0.00021278929226 0 3.066462033e-05 0.00020474487449 0 5.1462925663e-05 0.00019111413301 0 
7.2389973462e-05 0.00017290524342 0 9.1313610897e-05 0.00015039939566 0 0.0001064632822 0.00012355129395 0 
0.00011634323341 9.270112381e-05 0 0.00011959730855 5.7913741533e-05 0 0.00011498414204 1.8352326926e-05 0 
0.00010110943678 -2.8386430662e-05 0 7.5880155275e-05 -8.7169134771e-05 0 3.6616804966e-05 -0.00016669842122 0 
-1.3709421212e-05 -0.00027819670973 0 -6.1489613819e-05 -0.00040701956113 0 -7.9531020402e-05 -0.00050469395729 0 
-3.8316890544e-05 -0.00038443790442 0 -6.3214309935e-07 6.4530958608e-05 0 -2.5659279548e-06 0.0001508618208 0 
-3.8972038963e-06 0.00019873898319 0 -1.9674045692e-06 0.00021996411771 0 3.8306029386e-06 0.00022494999084 0 
1.2874315739e-05 0.00022003204113 0 2.4054635436e-05 0.00020780559139 0 3.5881386023e-05 0.00018896758342 0 
4.6500981884e-05 0.00016388028896 0 5.4135791516e-05 0.00013285488159 0 5.7214072631e-05 9.6355768496e-05 0 
5.4291905248e-05 5.4591004599e-05 0 4.4020615315e-05 6.7906074225e-06 0 2.5050699222e-05 -4.9669332516e-05 0 
-3.8386514098e-06 -0.00012000486505 0 -4.228678969e-05 -0.00021157417953 0 -8.2188662484e-05 -0.00032354905039 0 
-0.00010768987568 -0.00043494862627 0 -9.7390257518e-05 -0.00048450668057 0 -4.0050110056e-05 -0.00030607090382 0 
-3.5244608463e-07 6.3546369424e-05 0 -2.359445615e-06 0.00014790562559 0 -5.8925245108e-06 0.00019683082355 0 
-8.951517699e-06 0.00022074308348 0 -1.0230678943e-05 0.00022868987133 0 -9.4236282791e-06 0.00022614292411 0 
-6.9883210416e-06 0.00021531033535 0 -3.8187883054e-06 0.00019645912278 0 -1.1704958214e-06 0.00016965663794 0 
-5.314006927e-07 0.00013535243737 0 -3.3958710204e-06 9.4072023503e-05 0 -1.1228082988e-05 4.6120370241e-05 0 
-2.5378937271e-05 -9.1609024361e-06 0 -4.685039425e-05 -7.4159195728e-05 0 -7.5369739871e-05 -0.00015292369809 0 
-0.00010671729414 -0.00024845103904 0 -0.00013115091466 -0.00035100768419 0 -0.00013471490183 -0.00043655519284 0 
-0.00010211319495 -0.00043999878897 0 -3.7447670376e-05 -0.00022857312339 0 -8.3427152849e-07 6.2359651811e-05 0 
-4.5857682685e-06 0.00014333384694 0 -1.1580798081e-05 0.0001908744935 0 -1.9863803608e-05 0.00021535741482 0 
-2.7777083641e-05 0.00022488309872 0 -3.4525368774e-05 0.00022400846225 0 -4.0095154232e-05 0.00021431031899 0 
-4.5005496904e-05 0.00019571832921 0 -4.997996316e-05 0.00016807125774 0 -5.5995381393e-05 0.00013156149447 0 
-6.4303766334e-05 8.6690111138e-05 0 -7.6127083635e-05 3.3846753336e-05 0 -9.2406722149e-05 -2.7317778329e-05 0 
-0.0001132410471 -9.8308101766e-05 0 -0.00013661203191 -0.00018066512248 0 -0.00015634394883 -0.00027178908584 0 
-0.00016317036992 -0.000358929679 0 -0.00014603322406 -0.00041506003935 0 -9.6256942028e-05 -0.00037911595354 0 
-3.1295980402e-05 -0.00015982947261 0 -1.6759764908e-06 5.9849403792e-05 0 -7.9487520654e-06 0.00013581982264 0 
-1.892973038e-05 0.00018041250967 0 -3.2365398642e-05 0.00020410072486 0 -4.639549771e-05 0.00021419640957 0 
-5.9983478818e-05 0.00021435888516 0 -7.2840333055e-05 0.00020553325639 0 -8.496864212e-05 0.00018745674007 0 
-9.6671835351e-05 0.00015965518739 0 -0.00010862852753 0.00012200545441 0 -0.00012157602198 7.49902718e-05 0 
-0.00013614753889 1.9151758463e-05 0 -0.00015245816708 -4.5213050151e-05 0 -0.00016943966978 -0.0001182286576 0 
-0.00018388031081 -0.00019855619248 0 -0.00018974234581 -0.00027949196777 0 -0.00017931435587 -0.00034762522821 0 
-0.00014443977094 -0.00037435275935 0 -8.3162926254e-05 -0.00030877010682 0 -2.3241030379e-05 -0.00010529246183 0 
-2.6110917754e-06 5.5562335525e-05 0 -1.1512098626e-05 0.00012493310848 0 -2.6294707592e-05 0.00016553563655 0 
-4.4311702771e-05 0.00018752493454 0 -6.3605895397e-05 0.0001974479082 0 -8.2972538708e-05 0.00019815276212 0 
-0.00010176014055 0.00019009492335 0 -0.00011976298142 0.00017276392317 0 -0.00013706750765 0.00014534028483 0 
-0.00015381282924 0.0001076183432 0 -0.00017008096123 6.0161756555e-05 0 -0.00018574176467 3.7479533629e-06 0 
-0.00020000895739 -6.0387065956e-05 0 -0.0002107995 -0.00013082668711 0 -0.00021451579908 -0.00020411510307 0 
-0.00020649020261 -0.00027176949572 0 -0.00018112606717 -0.00031955557487 0 -0.00013337118014 -0.00031979294073 0 
-6.7269208512e-05 -0.00023595110913 0 -1.5565538157e-05 -6.6485893293e-05 0 -3.4334654279e-06 4.9517778322e-05 0 
-1.4550833379e-05 0.00011095929088 0 -3.2348484785e-05 0.00014692919377 0 -5.3776294407e-05 0.00016668657252 0 
-7.6851620107e-05 0.0001759167519 0 -0.0001003550069 0.00017681388831 0 -0.00012355482565 0.00016944637656 0 
-0.00014599875798 0.00015296569675 0 -0.00016731465959 0.00012651808341 0 -0.00018717376402 8.9836118614e-05 0 
-0.00020505968143 4.378993174e-05 0 -0.00021977166384 -1.0253007667e-05 0 -0.00022980692359 -7.0688557397e-05 0 
-0.00023323247344 -0.00013474128813 0 -0.00022697872431 -0.000197663052 0 -0.00020745194486 -0.00025066917088 0 
-0.00017064231525 -0.00027848213467 0 -0.00011518099074 -0.0002576501694 0 -5.1739742735e-05 -0.00016855066083 0 
-1.0238713318e-05 -4.0681641818e-05 0 -4.0028392644e-06 4.208147363e-05 0 -1.659350233e-05 9.4687564559e-05 0 
-3.6283730947e-05 0.00012571304008 0 -5.9753049474e-05 0.00014300559807 0 -8.5033588514e-05 0.00015124186161 0 
-0.00011095327306 0.00015206570727 0 -0.00013670267252 0.00014524533939 0 -0.00016157145446 0.00012985401966 0 
-0.00018480386561 0.00010508144774 0 -0.00020556143557 7.0656079898e-05 0 -0.0002226035804 2.8041908209e-05 0 
-0.00023456539724 -2.1178783385e-05 0 -0.00023998104719 -7.5213691376e-05 0 -0.00023680746911 -0.00013046812591 0 
-0.00022252746735 -0.00018140246333 0 -0.00019420174611 -0.00021907725885 0 -0.00014962391989 -0.00022868659086 0 
-9.1871191353e-05 -0.00019423166016 0 -3.7023292963e-05 -0.00011368002369 0 -6.7074859583e-06 -2.3735442542e-05 0 
-4.2462364435e-06 3.3832397922e-05 0 -1.740795852e-05 7.7184255125e-05 0 -3.7733081458e-05 0.00010320099796 0 
-6.1812188835e-05 0.00011796921428 0 -8.7715204245e-05 0.00012509469094 0 -0.00011427361508 0.00012573478255 0 
-0.00014058263168 0.00011951784805 0 -0.00016573080057 0.00010556456018 0 -0.00018866420955 8.320508708e-05 0 
-0.00020807734437 5.2361735782e-05 0 -0.00022265065402 1.4720797843e-05 0 -0.00023106905917 -2.8237895005e-05 0 
-0.00023169576534 -7.4196935879e-05 0 -0.00022259929266 -0.00011921483064 0 -0.00020171640987 -0.00015749287407 0 
-0.00016726932277 -0.00018021403977 0 -0.00012028107815 -0.0001759837391 0 -6.8346199173e-05 -0.0001372469044 0 
-2.5667623688e-05 -7.3138305569e-05 0 -4.3671133091e-06 -1.2660843275e-05 0 -4.1504057772e-06 2.5435755701e-05 0 
-1.6963122903e-05 5.9606458144e-05 0 -3.6681762001e-05 8.07350329e-05 0 -6.0008283505e-05 9.3029550456e-05 0 
-8.5078914099e-05 9.906070876e-05 0 -0.00011070164734 9.9587620651e-05 0 -0.00013586373979 9.4193900902e-05 0 
-0.00015949375258 8.2110325647e-05 0 -0.00018037079138 6.2848873829e-05 0 -0.00019708466059 3.6590945e-05 0 
-0.000208268219 4.7347205675e-06 0 -0.00021264186601 -3.1043869881e-05 0 -0.00020871960041 -6.8095401581e-05 0 
-0.00019489639734 -0.00010239668919 0 -0.00016995845909 -0.00012849019449 0 -0.00013416444066 -0.00013897561381 0 
-9.10386259e-05 -0.00012710810568 0 -4.8664499413e-05 -9.1813532353e-05 0 -1.7267731704e-05 -4.4496334419e-05 0 