# vtk DataFile Version 4.2
vtk output
ASCII
DATASET POLYDATA
POINTS 484 float
0 0 0 0.01 0 0 0.01 0.01 0 
0 0.01 0 0.02 0 0 0.02 0.01 0 
0.03 0 0 0.03 0.01 0 0.04 0 0 
0.04 0.01 0 0.05 0 0 0.05 0.01 0 
0.06 0 0 0.06 0.01 0 0.07 0 0 
0.07 0.01 0 0.08 0 0 0.08 0.01 0 
0.09 0 0 0.09 0.01 0 0.1 0 0 
0.1 0.01 0 0.11 0 0 0.11 0.01 0 
0.12 0 0 0.12 0.01 0 0.13 0 0 
0.13 0.01 0 0.14 0 0 0.14 0.01 0 
0.15 0 0 0.15 0.01 0 0.16 0 0 
0.16 0.01 0 0.17 0 0 0.17 0.01 0 
0.18 0 0 0.18 0.01 0 0.19 0 0 
0.19 0.01 0 0.2 0 0 0.2 0.01 0 
0.21 0 0 0.21 0.01 0 0.22 0 0 
0.22 0.01 0 0.23 0 0 0.23 0.01 0 
0.01 0.02 0 0 0.02 0 0.02 0.02 0 
0.03 0.02 0 0.04 0.02 0 0.05 0.02 0 
0.06 0.02 0 0.07 0.02 0 0.08 0.02 0 
0.09 0.02 0 0.1 0.02 0 0.11 0.02 0 
0.12 0.02 0 0.13 0.02 0 0.14 0.02 0 
0.15 0.02 0 0.16 0.02 0 0.17 0.02 0 
0.18 0.02 0 0.19 0.02 0 0.2 0.02 0 
0.21 0.02 0 0.22 0.02 0 0.23 0.02 0 
0.01 0.03 0 0 0.03 0 0.02 0.03 0 
0.03 0.03 0 0.04 0.03 0 0.05 0.03 0 
0.06 0.03 0 0.07 0.03 0 0.08 0.03 0 
0.09 0.03 0 0.1 0.03 0 0.11 0.03 0 
0.12 0.03 0 0.13 0.03 0 0.14 0.03 0 
0.15 0.03 0 0.16 0.03 0 0.17 0.03 0 
0.18 0.03 0 0.19 0.03 0 0.2 0.03 0 
0.21 0.03 0 0.22 0.03 0 0.23 0.03 0 
0.01 0.04 0 0 0.04 0 0.02 0.04 0 
0.03 0.04 0 0.04 0.04 0 0.05 0.04 0 
0.06 0.04 0 0.07 0.04 0 0.08 0.04 0 
0.09 0.04 0 0.1 0.04 0 0.11 0.04 0 
0.12 0.04 0 0.13 0.04 0 0.14 0.04 0 
0.15 0.04 0 0.16 0.04 0 0.17 0.04 0 
0.18 0.04 0 0.19 0.04 0 0.2 0.04 0 
0.21 0.04 0 0.22 0.04 0 0.23 0.04 0 
0.01 0.05 0 0 0.05 0 0.02 0.05 0 
0.03 0.05 0 0.04 0.05 0 0.05 0.05 0 
0.06 0.05 0 0.07 0.05 0 0.08 0.05 0 
0.09 0.05 0 0.1 0.05 0 0.11 0.05 0 
0.12 0.05 0 0.13 0.05 0 0.14 0.05 0 
0.15 0.05 0 0.16 0.05 0 0.17 0.05 0 
0.18 0.05 0 0.19 0.05 0 0.2 0.05 0 
0.21 0.05 0 0.22 0.05 0 0.23 0.05 0 
0.01 0.06 0 0 0.06 0 0.02 0.06 0 
0.03 0.06 0 0.04 0.06 0 0.05 0.06 0 
0.06 0.06 0 0.07 0.06 0 0.08 0.06 0 
0.09 0.06 0 0.1 0.06 0 0.11 0.06 0 
0.12 0.06 0 0.13 0.06 0 0.14 0.06 0 
0.15 0.06 0 0.16 0.06 0 0.17 0.06 0 
0.18 0.06 0 0.19 0.06 0 0.2 0.06 0 
0.21 0.06 0 0.22 0.06 0 0.23 0.06 0 
0.01 0.07 0 0 0.07 0 0.02 0.07 0 
0.03 0.07 0 0.04 0.07 0 0.05 0.07 0 
0.06 0.07 0 0.07 0.07 0 0.08 0.07 0 
0.09 0.07 0 0.1 0.07 0 0.11 0.07 0 
0.12 0.07 0 0.13 0.07 0 0.14 0.07 0 
0.15 0.07 0 0.16 0.07 0 0.17 0.07 0 
0.18 0.07 0 0.19 0.07 0 0.2 0.07 0 
0.21 0.07 0 0.22 0.07 0 0.23 0.07 0 
0.01 0.08 0 0 0.08 0 0.02 0.08 0 
0.03 0.08 0 0.04 0.08 0 0.05 0.08 0 
0.06 0.08 0 0.07 0.08 0 0.08 0.08 0 
0.09 0.08 0 0.1 0.08 0 0.11 0.08 0 
0.12 0.08 0 0.13 0.08 0 0.14 0.08 0 
0.15 0.08 0 0.16 0.08 0 0.17 0.08 0 
0.18 0.08 0 0.19 0.08 0 0.2 0.08 0 
0.21 0.08 0 0.22 0.08 0 0.23 0.08 0 
0.01 0.09 0 0 0.09 0 0.02 0.09 0 
0.03 0.09 0 0.04 0.09 0 0.05 0.09 0 
0.06 0.09 0 0.07 0.09 0 0.08 0.09 0 
0.09 0.09 0 0.1 0.09 0 0.11 0.09 0 
0.12 0.09 0 0.13 0.09 0 0.14 0.09 0 
0.15 0.09 0 0.16 0.09 0 0.17 0.09 0 
0.18 0.09 0 0.19 0.09 0 0.2 0.09 0 
0.21 0.09 0 0.22 0.09 0 0.23 0.09 0 
0.01 0.1 0 0 0.1 0 0.02 0.1 0 
0.03 0.1 0 0.04 0.1 0 0.05 0.1 0 
0.06 0.1 0 0.07 0.1 0 0.08 0.1 0 
0.09 0.1 0 0.1 0.1 0 0.11 0.1 0 
0.12 0.1 0 0.13 0.1 0 0.14 0.1 0 
0.15 0.1 0 0.16 0.1 0 0.17 0.1 0 
0.18 0.1 0 0.19 0.1 0 0.2 0.1 0 
0.21 0.1 0 0.22 0.1 0 0.23 0.1 0 
0.01 0.11 0 0 0.11 0 0.02 0.11 0 
0.03 0.11 0 0.04 0.11 0 0.05 0.11 0 
0.06 0.11 0 0.07 0.11 0 0.08 0.11 0 
0.09 0.11 0 0.1 0.11 0 0.11 0.11 0 
0.12 0.11 0 0.13 0.11 0 0.14 0.11 0 
0.15 0.11 0 0.16 0.11 0 0.17 0.11 0 
0.18 0.11 0 0.19 0.11 0 0.2 0.11 0 
0.21 0.11 0 0.22 0.11 0 0.23 0.11 0 
0.01 0.12 0 0 0.12 0 0.02 0.12 0 
0.03 0.12 0 0.04 0.12 0 0.05 0.12 0 
0.06 0.12 0 0.07 0.12 0 0.08 0.12 0 
0.09 0.12 0 0.1 0.12 0 0.11 0.12 0 
0.12 0.12 0 0.13 0.12 0 0.14 0.12 0 
0.15 0.12 0 0.16 0.12 0 0.17 0.12 0 
0.18 0.12 0 0.19 0.12 0 0.2 0.12 0 
0.21 0.12 0 0.22 0.12 0 0.23 0.12 0 
0.01 0.13 0 0 0.13 0 0.02 0.13 0 
0.03 0.13 0 0.04 0.13 0 0.05 0.13 0 
0.06 0.13 0 0.07 0.13 0 0.08 0.13 0 
0.09 0.13 0 0.1 0.13 0 0.11 0.13 0 
0.12 0.13 0 0.13 0.13 0 0.14 0.13 0 
0.15 0.13 0 0.16 0.13 0 0.17 0.13 0 
0.18 0.13 0 0.19 0.13 0 0.2 0.13 0 
0.21 0.13 0 0.22 0.13 0 0.23 0.13 0 
0.01 0.14 0 0 0.14 0 0.02 0.14 0 
0.03 0.14 0 0.04 0.14 0 0.05 0.14 0 
0.06 0.14 0 0.07 0.14 0 0.08 0.14 0 
0.09 0.14 0 0.1 0.14 0 0.11 0.14 0 
0.12 0.14 0 0.13 0.14 0 0.17 0.14 0 
0.16 0.14 0 0.18 0.14 0 0.19 0.14 0 
0.2 0.14 0 0.21 0.14 0 0.22 0.14 0 
0.23 0.14 0 0.01 0.15 0 0 0.15 0 
0.02 0.15 0 0.03 0.15 0 0.04 0.15 0 
0.05 0.15 0 0.06 0.15 0 0.07 0.15 0 
0.08 0.15 0 0.09 0.15 0 0.1 0.15 0 
0.11 0.15 0 0.12 0.15 0 0.13 0.15 0 
0.17 0.15 0 0.16 0.15 0 0.18 0.15 0 
0.19 0.15 0 0.2 0.15 0 0.21 0.15 0 
0.22 0.15 0 0.23 0.15 0 0.01 0.16 0 
0 0.16 0 0.02 0.16 0 0.03 0.16 0 
0.04 0.16 0 0.05 0.16 0 0.06 0.16 0 
0.07 0.16 0 0.08 0.16 0 0.09 0.16 0 
0.1 0.16 0 0.11 0.16 0 0.12 0.16 0 
0.13 0.16 0 0.17 0.16 0 0.16 0.16 0 
0.18 0.16 0 0.19 0.16 0 0.2 0.16 0 
0.21 0.16 0 0.22 0.16 0 0.23 0.16 0 
0.01 0.17 0 0 0.17 0 0.02 0.17 0 
0.03 0.17 0 0.04 0.17 0 0.05 0.17 0 
0.06 0.17 0 0.07 0.17 0 0.08 0.17 0 
0.09 0.17 0 0.1 0.17 0 0.11 0.17 0 
0.12 0.17 0 0.13 0.17 0 0.17 0.17 0 
0.16 0.17 0 0.18 0.17 0 0.19 0.17 0 
0.2 0.17 0 0.21 0.17 0 0.22 0.17 0 
0.23 0.17 0 0.01 0.18 0 0 0.18 0 
0.02 0.18 0 0.03 0.18 0 0.04 0.18 0 
0.05 0.18 0 0.06 0.18 0 0.17 0.18 0 
0.16 0.18 0 0.18 0.18 0 0.19 0.18 0 
0.2 0.18 0 0.21 0.18 0 0.22 0.18 0 
0.23 0.18 0 0.01 0.19 0 0 0.19 0 
0.02 0.19 0 0.03 0.19 0 0.04 0.19 0 
0.05 0.19 0 0.06 0.19 0 0.17 0.19 0 
0.16 0.19 0 0.18 0.19 0 0.19 0.19 0 
0.2 0.19 0 0.21 0.19 0 0.22 0.19 0 
0.23 0.19 0 0.01 0.2 0 0 0.2 0 
0.02 0.2 0 0.03 0.2 0 0.04 0.2 0 
0.05 0.2 0 0.06 0.2 0 0.17 0.2 0 
0.16 0.2 0 0.18 0.2 0 0.19 0.2 0 
0.2 0.2 0 0.21 0.2 0 0.22 0.2 0 
0.23 0.2 0 0.01 0.21 0 0 0.21 0 
0.02 0.21 0 0.03 0.21 0 0.04 0.21 0 
0.05 0.21 0 0.06 0.21 0 0.17 0.21 0 
0.16 0.21 0 0.18 0.21 0 0.19 0.21 0 
0.2 0.21 0 0.21 0.21 0 0.22 0.21 0 
0.23 0.21 0 
POLYGONS 431 2155
4 455 454 469 470 
4 454 456 471 469 
4 456 457 472 471 
4 457 458 473 472 
4 458 459 474 473 
4 459 460 475 474 
4 462 461 476 477 
4 461 463 478 476 
4 463 464 479 478 
4 464 465 480 479 
4 465 466 481 480 
4 466 467 482 481 
4 467 468 483 482 
4 440 439 454 455 
4 439 441 456 454 
4 441 442 457 456 
4 442 443 458 457 
4 443 444 459 458 
4 444 445 460 459 
4 447 446 461 462 
4 446 448 463 461 
4 448 449 464 463 
4 449 450 465 464 
4 450 451 466 465 
4 451 452 467 466 
4 452 453 468 467 
4 425 424 439 440 
4 424 426 441 439 
4 426 427 442 441 
4 427 428 443 442 
4 428 429 444 443 
4 429 430 445 444 
4 432 431 446 447 
4 431 433 448 446 
4 433 434 449 448 
4 434 435 450 449 
4 435 436 451 450 
4 436 437 452 451 
4 437 438 453 452 
4 403 402 424 425 
4 402 404 426 424 
4 404 405 427 426 
4 405 406 428 427 
4 406 407 429 428 
4 407 408 430 429 
4 417 416 431 432 
4 416 418 433 431 
4 418 419 434 433 
4 419 420 435 434 
4 420 421 436 435 
4 421 422 437 436 
4 422 423 438 437 
4 381 380 402 403 
4 380 382 404 402 
4 382 383 405 404 
4 383 384 406 405 
4 384 385 407 406 
4 385 386 408 407 
4 386 387 409 408 
4 387 388 410 409 
4 388 389 411 410 
4 389 390 412 411 
4 390 391 413 412 
4 391 392 414 413 
4 392 393 415 414 
4 395 394 416 417 
4 394 396 418 416 
4 396 397 419 418 
4 397 398 420 419 
4 398 399 421 420 
4 399 400 422 421 
4 400 401 423 422 
4 359 358 380 381 
4 358 360 382 380 
4 360 361 383 382 
4 361 362 384 383 
4 362 363 385 384 
4 363 364 386 385 
4 364 365 387 386 
4 365 366 388 387 
4 366 367 389 388 
4 367 368 390 389 
4 368 369 391 390 
4 369 370 392 391 
4 370 371 393 392 
4 373 372 394 395 
4 372 374 396 394 
4 374 375 397 396 
4 375 376 398 397 
4 376 377 399 398 
4 377 378 400 399 
4 378 379 401 400 
4 337 336 358 359 
4 336 338 360 358 
4 338 339 361 360 
4 339 340 362 361 
4 340 341 363 362 
4 341 342 364 363 
4 342 343 365 364 
4 343 344 366 365 
4 344 345 367 366 
4 345 346 368 367 
4 346 347 369 368 
4 347 348 370 369 
4 348 349 371 370 
4 351 350 372 373 
4 350 352 374 372 
4 352 353 375 374 
4 353 354 376 375 
4 354 355 377 376 
4 355 356 378 377 
4 356 357 379 378 
4 313 312 336 337 
4 312 314 338 336 
4 314 315 339 338 
4 315 316 340 339 
4 316 317 341 340 
4 317 318 342 341 
4 318 319 343 342 
4 319 320 344 343 
4 320 321 345 344 
4 321 322 346 345 
4 322 323 347 346 
4 323 324 348 347 
4 324 325 349 348 
4 328 329 350 351 
4 329 330 352 350 
4 330 331 353 352 
4 331 332 354 353 
4 332 333 355 354 
4 333 334 356 355 
4 334 335 357 356 
4 289 288 312 313 
4 288 290 314 312 
4 290 291 315 314 
4 291 292 316 315 
4 292 293 317 316 
4 293 294 318 317 
4 294 295 319 318 
4 295 296 320 319 
4 296 297 321 320 
4 297 298 322 321 
4 298 299 323 322 
4 299 300 324 323 
4 300 301 325 324 
4 301 302 326 325 
4 302 303 327 326 
4 303 304 328 327 
4 304 305 329 328 
4 305 306 330 329 
4 306 307 331 330 
4 307 308 332 331 
4 308 309 333 332 
4 309 310 334 333 
4 310 311 335 334 
4 265 264 288 289 
4 264 266 290 288 
4 266 267 291 290 
4 267 268 292 291 
4 268 269 293 292 
4 269 270 294 293 
4 270 271 295 294 
4 271 272 296 295 
4 272 273 297 296 
4 273 274 298 297 
4 274 275 299 298 
4 275 276 300 299 
4 276 277 301 300 
4 277 278 302 301 
4 278 279 303 302 
4 279 280 304 303 
4 280 281 305 304 
4 281 282 306 305 
4 282 283 307 306 
4 283 284 308 307 
4 284 285 309 308 
4 285 286 310 309 
4 286 287 311 310 
4 241 240 264 265 
4 240 242 266 264 
4 242 243 267 266 
4 243 244 268 267 
4 244 245 269 268 
4 245 246 270 269 
4 246 247 271 270 
4 247 248 272 271 
4 248 249 273 272 
4 249 250 274 273 
4 250 251 275 274 
4 251 252 276 275 
4 252 253 277 276 
4 253 254 278 277 
4 254 255 279 278 
4 255 256 280 279 
4 256 257 281 280 
4 257 258 282 281 
4 258 259 283 282 
4 259 260 284 283 
4 260 261 285 284 
4 261 262 286 285 
4 262 263 287 286 
4 217 216 240 241 
4 216 218 242 240 
4 218 219 243 242 
4 219 220 244 243 
4 220 221 245 244 
4 221 222 246 245 
4 222 223 247 246 
4 223 224 248 247 
4 224 225 249 248 
4 225 226 250 249 
4 226 227 251 250 
4 227 228 252 251 
4 228 229 253 252 
4 229 230 254 253 
4 230 231 255 254 
4 231 232 256 255 
4 232 233 257 256 
4 233 234 258 257 
4 234 235 259 258 
4 235 236 260 259 
4 236 237 261 260 
4 237 238 262 261 
4 238 239 263 262 
4 193 192 216 217 
4 192 194 218 216 
4 194 195 219 218 
4 195 196 220 219 
4 196 197 221 220 
4 197 198 222 221 
4 198 199 223 222 
4 199 200 224 223 
4 200 201 225 224 
4 201 202 226 225 
4 202 203 227 226 
4 203 204 228 227 
4 204 205 229 228 
4 205 206 230 229 
4 206 207 231 230 
4 207 208 232 231 
4 208 209 233 232 
4 209 210 234 233 
4 210 211 235 234 
4 211 212 236 235 
4 212 213 237 236 
4 213 214 238 237 
4 214 215 239 238 
4 169 168 192 193 
4 168 170 194 192 
4 170 171 195 194 
4 171 172 196 195 
4 172 173 197 196 
4 173 174 198 197 
4 174 175 199 198 
4 175 176 200 199 
4 176 177 201 200 
4 177 178 202 201 
4 178 179 203 202 
4 179 180 204 203 
4 180 181 205 204 
4 181 182 206 205 
4 182 183 207 206 
4 183 184 208 207 
4 184 185 209 208 
4 185 186 210 209 
4 186 187 211 210 
4 187 188 212 211 
4 188 189 213 212 
4 189 190 214 213 
4 190 191 215 214 
4 145 144 168 169 
4 144 146 170 168 
4 146 147 171 170 
4 147 148 172 171 
4 148 149 173 172 
4 149 150 174 173 
4 150 151 175 174 
4 151 152 176 175 
4 152 153 177 176 
4 153 154 178 177 
4 154 155 179 178 
4 155 156 180 179 
4 156 157 181 180 
4 157 158 182 181 
4 158 159 183 182 
4 159 160 184 183 
4 160 161 185 184 
4 161 162 186 185 
4 162 163 187 186 
4 163 164 188 187 
4 164 165 189 188 
4 165 166 190 189 
4 166 167 191 190 
4 121 120 144 145 
4 120 122 146 144 
4 122 123 147 146 
4 123 124 148 147 
4 124 125 149 148 
4 125 126 150 149 
4 126 127 151 150 
4 127 128 152 151 
4 128 129 153 152 
4 129 130 154 153 
4 130 131 155 154 
4 131 132 156 155 
4 132 133 157 156 
4 133 134 158 157 
4 134 135 159 158 
4 135 136 160 159 
4 136 137 161 160 
4 137 138 162 161 
4 138 139 163 162 
4 139 140 164 163 
4 140 141 165 164 
4 141 142 166 165 
4 142 143 167 166 
4 97 96 120 121 
4 96 98 122 120 
4 98 99 123 122 
4 99 100 124 123 
4 100 101 125 124 
4 101 102 126 125 
4 102 103 127 126 
4 103 104 128 127 
4 104 105 129 128 
4 105 106 130 129 
4 106 107 131 130 
4 107 108 132 131 
4 108 109 133 132 
4 109 110 134 133 
4 110 111 135 134 
4 111 112 136 135 
4 112 113 137 136 
4 113 114 138 137 
4 114 115 139 138 
4 115 116 140 139 
4 116 117 141 140 
4 117 118 142 141 
4 118 119 143 142 
4 73 72 96 97 
4 72 74 98 96 
4 74 75 99 98 
4 75 76 100 99 
4 76 77 101 100 
4 77 78 102 101 
4 78 79 103 102 
4 79 80 104 103 
4 80 81 105 104 
4 81 82 106 105 
4 82 83 107 106 
4 83 84 108 107 
4 84 85 109 108 
4 85 86 110 109 
4 86 87 111 110 
4 87 88 112 111 
4 88 89 113 112 
4 89 90 114 113 
4 90 91 115 114 
4 91 92 116 115 
4 92 93 117 116 
4 93 94 118 117 
4 94 95 119 118 
4 49 48 72 73 
4 48 50 74 72 
4 50 51 75 74 
4 51 52 76 75 
4 52 53 77 76 
4 53 54 78 77 
4 54 55 79 78 
4 55 56 80 79 
4 56 57 81 80 
4 57 58 82 81 
4 58 59 83 82 
4 59 60 84 83 
4 60 61 85 84 
4 61 62 86 85 
4 62 63 87 86 
4 63 64 88 87 
4 64 65 89 88 
4 65 66 90 89 
4 66 67 91 90 
4 67 68 92 91 
4 68 69 93 92 
4 69 70 94 93 
4 70 71 95 94 
4 3 2 48 49 
4 2 5 50 48 
4 5 7 51 50 
4 7 9 52 51 
4 9 11 53 52 
4 11 13 54 53 
4 13 15 55 54 
4 15 17 56 55 
4 17 19 57 56 
4 19 21 58 57 
4 21 23 59 58 
4 23 25 60 59 
4 25 27 61 60 
4 27 29 62 61 
4 29 31 63 62 
4 31 33 64 63 
4 33 35 65 64 
4 35 37 66 65 
4 37 39 67 66 
4 39 41 68 67 
4 41 43 69 68 
4 43 45 70 69 
4 45 47 71 70 
4 0 1 2 3 
4 1 4 5 2 
4 4 6 7 5 
4 6 8 9 7 
4 8 10 11 9 
4 10 12 13 11 
4 12 14 15 13 
4 14 16 17 15 
4 16 18 19 17 
4 18 20 21 19 
4 20 22 23 21 
4 22 24 25 23 
4 24 26 27 25 
4 26 28 29 27 
4 28 30 31 29 
4 30 32 33 31 
4 32 34 35 33 
4 34 36 37 35 
4 36 38 39 37 
4 38 40 41 39 
4 40 42 43 41 
4 42 44 45 43 
4 44 46 47 45 

CELL_DATA 431
SCALARS pressure double
LOOKUP_TABLE default
-2.4919815283e-05 -2.4805198097e-05 -2.4310897921e-05 -2.3683890516e-05 -2.2974938914e-05 -2.2463332781e-05 0.00072328198516 0.00039829056915 0.00011238020891 
5.1122938227e-05 7.1825573177e-05 0.0001051208143 0.00012787245593 -2.5035645114e-05 -2.4873234834e-05 -2.4402904134e-05 -2.377310733e-05 -2.2993678962e-05 
-2.1952824358e-05 0.00020434263472 4.5626898206e-05 -3.0863363666e-05 -1.8673610202e-06 5.8900570766e-05 0.00010738097928 0.00013125346565 -2.5686747655e-05 
-2.5228544824e-05 -2.4675670584e-05 -2.4028720496e-05 -2.320160899e-05 -2.0433592275e-05 -4.0621158673e-05 -0.0001132329488 -0.00013466523948 -8.3640972541e-05 
-3.1159905877e-06 5.9586769081e-05 8.8794703694e-05 -2.6670153367e-05 -2.5737271521e-05 -2.5134183499e-05 -2.4720113367e-05 -2.451221447e-05 -2.0642650985e-05 
-9.3562940903e-05 -0.00014159085234 -0.00014815609155 -0.00010612992973 -3.6346671601e-05 2.1419948982e-05 4.3361199284e-05 -2.7771931148e-05 -2.6320114707e-05 
-2.5833502946e-05 -2.6463722669e-05 -3.0676903755e-05 -5.1105327662e-05 -9.5656269877e-05 -2.9688285141e-05 2.4315246376e-06 0.00010309674249 0.00038196259449 
0.00060802668044 0.0011264714437 -6.7457518345e-05 -0.00011084393253 -0.00011256829701 -8.3783295422e-05 -3.6340621818e-05 5.2947832243e-06 1.4959315578e-05 
-2.8752967613e-05 -2.6887180872e-05 -2.6623478486e-05 -2.8069916153e-05 -3.2922621404e-05 -4.3795662873e-05 -5.9835626293e-05 -5.2581441476e-05 -3.7548658585e-05 
1.4861513096e-05 0.00017336825239 3.0120138892e-05 8.7499960858e-05 -2.3407739849e-05 -6.7365459281e-05 -6.6977537517e-05 -4.7993144385e-05 -1.9752250882e-05 
3.9692982707e-06 2.3723820288e-06 -2.9424971337e-05 -2.7331350476e-05 -2.7423437081e-05 -2.9602979274e-05 -3.4771474625e-05 -4.3091946397e-05 -5.1884247266e-05 
-5.2559543388e-05 -4.7057889607e-05 -3.1736451974e-05 -4.5062157379e-05 -0.0002550044101 -0.00027942930739 -2.1424501051e-06 -3.3321449226e-05 -3.0158361253e-05 
-1.727891199e-05 -1.5989564505e-06 8.7575373072e-06 1.5046466985e-06 -2.9575260717e-05 -2.7474713916e-05 -2.8078473149e-05 -3.1072834849e-05 -3.6886990616e-05 
-4.4943754234e-05 -5.2785724824e-05 -5.676544664e-05 -5.7028067844e-05 -5.8029435175e-05 -8.636075106e-05 -0.00021905050889 -0.00035332056042 -6.1977763903e-05 
-2.1227197005e-05 -6.9970199885e-06 2.395306154e-06 1.0687266584e-05 1.2689030998e-05 5.4366039252e-06 -2.8917090275e-05 -2.705811034e-05 -2.8294649199e-05 
-3.2159740486e-05 -3.8905625025e-05 -4.775904206e-05 -5.675090604e-05 -6.3886692375e-05 -6.8835603766e-05 -7.3383744365e-05 -6.9177081849e-05 -7.1279607028e-05 
-5.5216307405e-05 4.8002017249e-06 9.9005523841e-06 1.6880252599e-05 -4.2005608272e-06 6.8464382109e-06 1.047864801e-05 1.4042474767e-05 1.6276065564e-05 
1.5157657728e-05 9.9752493007e-06 -2.7138331022e-05 -2.578635919e-05 -2.7696299206e-05 -3.2462899725e-05 -4.0210491193e-05 -5.0115610986e-05 -6.0633910457e-05 
-7.0196349438e-05 -7.7484414302e-05 -8.0334453271e-05 -6.2860928725e-05 -3.4702290001e-05 -6.3646734071e-07 1.5883298074e-05 1.7957316682e-05 1.8300327905e-05 
1.5795957309e-05 1.6477558945e-05 1.7397801405e-05 1.8293113976e-05 1.8305007939e-05 1.6725576561e-05 1.3579398794e-05 -2.4012328904e-05 -2.3405550483e-05 
-2.5889622601e-05 -3.1320544796e-05 -3.9664206167e-05 -5.0315869976e-05 -6.1959219377e-05 -7.2805664977e-05 -8.0517579923e-05 -8.0730088817e-05 -6.1410465803e-05 
-2.7567695596e-05 2.5639786697e-06 1.5181368399e-05 1.9568053104e-05 2.0386501422e-05 1.9897696013e-05 1.9456626741e-05 1.9415779653e-05 1.9434847191e-05 
1.8985202746e-05 1.7827378968e-05 1.6115290267e-05 -1.9524911451e-05 -1.9819250736e-05 -2.2677042227e-05 -2.8264523956e-05 -3.6662489187e-05 -4.7353862987e-05 
-5.9100208819e-05 -6.9896352696e-05 -7.6630732261e-05 -7.4561651594e-05 -5.65761757e-05 -2.5838115228e-05 8.5010762762e-07 1.453061026e-05 1.9900181534e-05 
2.1190277722e-05 2.093566265e-05 2.0374600571e-05 2.0049093621e-05 1.98351478e-05 1.943392475e-05 1.8745328317e-05 1.7896776508e-05 -1.3956738698e-05 
-1.5174244825e-05 -1.8114234062e-05 -2.3393058528e-05 -3.1181370631e-05 -4.0993733251e-05 -5.1794781705e-05 -6.1169076629e-05 -6.598489024e-05 -6.2174235133e-05 
-4.6154160952e-05 -2.0858776406e-05 1.4285932862e-06 1.4367186874e-05 1.9860765709e-05 2.1424095003e-05 2.1347050389e-05 2.0870159601e-05 2.0503015868e-05 
2.0250220578e-05 1.9961385725e-05 1.9585439842e-05 1.9220773503e-05 -7.897243602e-06 -9.9105166686e-06 -1.2613085316e-05 -1.7307147395e-05 -2.394245924e-05 
-3.2199126386e-05 -4.0971998665e-05 -4.8061052092e-05 -5.0648660212e-05 -4.5767628673e-05 -3.208556586e-05 -1.2557775729e-05 4.7284978451e-06 1.5447569112e-05 
2.0180780874e-05 2.1696661889e-05 2.1744591811e-05 2.1372209793e-05 2.1026930944e-05 2.0778895041e-05 2.0567083234e-05 2.0365871062e-05 2.0265506299e-05 
-2.136234112e-06 -4.7040761607e-06 -6.9652146553e-06 -1.0645353451e-05 -1.5864914576e-05 -2.2192755397e-05 -2.8570666637e-05 -3.3213124532e-05 -3.3832149242e-05 
-2.8519094811e-05 -1.7405959713e-05 -2.9303930976e-06 9.5448520759e-06 1.7193591518e-05 2.091108354e-05 2.2164512852e-05 2.2232050724e-05 2.1919902503e-05 
2.1596421971e-05 2.13556327e-05 2.1184904108e-05 2.107421342e-05 2.1118415619e-05 2.5646696612e-06 -2.5414017495e-07 -2.0030328284e-06 -4.6334923369e-06 
-8.3024653777e-06 -1.2639754457e-05 -1.6725637453e-05 -1.9216215112e-05 -1.8416268709e-05 -1.3487025294e-05 -4.9104784948e-06 5.2554359995e-06 1.3771098509e-05 
1.9188469755e-05 2.1869500481e-05 2.2765307501e-05 2.2768896824e-05 2.2468309266e-05 2.2151335313e-05 2.1911468456e-05 2.1758709494e-05 2.1692365471e-05 
2.1817548255e-05 5.6852614574e-06 2.9352472258e-06 1.672560075e-06 -1.6932581008e-08 -2.2928108292e-06 -4.8744620051e-06 -7.0513480841e-06 -7.8316339442e-06 
-6.3180328687e-06 -2.0725970895e-06 4.4436586239e-06 1.1540472637e-05 1.7321284368e-05 2.1016940594e-05 2.2833938829e-05 2.3390373989e-05 2.3297800655e-05 
2.2978223054e-05 2.2652340085e-05 2.2404035354e-05 2.2252837227e-05 2.2203817616e-05 2.2375299769e-05 7.0761645162e-06 4.6931662546e-06 3.8212195554e-06 
2.8546084681e-06 1.6642704144e-06 4.4414747972e-07 -3.1708805615e-07 3.7779544142e-08 2.0102121958e-06 5.7465676731e-06 1.0764388315e-05 1.5844511079e-05 
1.9885397155e-05 2.2444525924e-05 2.3665236861e-05 2.3968220697e-05 2.3786087031e-05 2.3431902668e-05 2.3081330958e-05 2.281083385e-05 2.2645395642e-05 
2.2593953568e-05 2.2786975551e-05 6.9867459309e-06 5.2060964254e-06 4.5811602813e-06 4.054116272e-06 3.5735110581e-06 3.2878311385e-06 3.5186950362e-06 
4.6589162303e-06 6.9794836498e-06 1.0437307952e-05 1.4549230014e-05 1.8493069808e-05 2.1563562318e-05 2.3481126082e-05 2.4355141968e-05 2.4496234218e-05 
2.4236261676e-05 2.3829302741e-05 2.3430504237e-05 2.3117242195e-05 2.292046401e-05 2.285017665e-05 2.3034599696e-05 5.9957145916e-06 4.9162270981e-06 
4.348279136e-06 3.9536153268e-06 3.8008648092e-06 4.0446888522e-06 4.9154379472e-06 6.6411020687e-06 9.318530238e-06 1.278586532e-05 1.6579066547e-05 
2.0063340369e-05 2.2720455956e-05 2.4345613337e-05 2.503406715e-05 2.5049615197e-05 2.4685567777e-05 2.4180245675e-05 2.3691464577e-05 2.3306460031e-05 
2.306282671e-05 2.2965828958e-05 2.3098559651e-05 5.0033065019e-06 4.0136825521e-06 2.9563302673e-06 2.2218220112e-06 1.9437302028e-06 2.3176848135e-06 
3.6102945155e-06 6.0366597574e-06 9.5953374151e-06 1.3949275711e-05 1.8442427898e-05 2.2313370624e-05 2.502196219e-05 2.6426946958e-05 2.6725443005e-05 
2.6282874267e-05 2.5473760786e-05 2.4589890342e-05 2.3816314973e-05 2.3248915462e-05 2.2924559109e-05 2.2840772867e-05 2.296980956e-05 
VECTORS velocity double
-4.6634363523e-07 -4.6634363523e-07 0 -1.2957148721e-06 -3.6302760164e-07 0 -1.7264660705e-06 -6.7723596732e-08 0 
-1.7816635937e-06 1.252607345e-08 0 -1.6728563065e-06 9.6281213828e-08 0 -7.8828754632e-07 7.8828754632e-07 0 
0.00036464614629 0.00036464614629 0 0.00078188856772 5.2596275141e-05 0 0.00077749014392 -5.6994698942e-05 0 
0.00061954506389 -0.00010095038108 0 0.00040363258763 -0.00011496209518 0 0.00018771406932 -0.00010095642313 0 
4.3378823099e-05 -4.3378823099e-05 0 -4.6284871163e-07 -1.3955359821e-06 0 -7.8059835706e-07 -5.8095613707e-07 0 
3.407538365e-08 5.3412748103e-07 0 1.1431808933e-06 4.645829821e-07 0 1.0651435927e-06 -3.2500570823e-07 0 
2.7378772839e-07 1.3027873643e-06 0 0.00015025359434 0.00087954588692 0 0.00038287516779 0.00018756052938 0 
0.00047635140559 -0.00010288113918 0 0.00044657812634 -0.00024278230011 0 0.00033883944171 -0.00029678133705 0 
0.00019676958967 -0.0002771255516 0 6.077844216e-05 -0.00014753608836 0 2.0763663362e-07 -1.6507480601e-06 0 
2.2155244303e-06 1.3643940922e-06 0 6.9540020092e-06 4.1419285714e-06 0 1.2249963207e-05 3.2618485991e-06 0 
1.3295623797e-05 -2.1546480364e-06 0 5.9917748021e-06 -4.9627751663e-06 0 2.7894298215e-05 0.0010576937795 0 
8.3003128705e-05 0.00029714304076 0 0.00013493181452 -6.7058726938e-05 0 0.00015697144781 -0.00028633835832 0 
0.00013097989106 -0.00038695552022 0 7.7432945682e-05 -0.00038256816584 0 2.3601518399e-05 -0.00023191604892 0 
1.3783937301e-06 -6.4717696391e-08 0 7.3434910131e-06 7.7513488082e-06 0 1.9265238497e-05 1.4415198919e-05 0 
3.4884818967e-05 1.390411992e-05 0 4.6350785825e-05 -2.8529190925e-07 0 2.4766108072e-05 -3.5720658041e-05 0 
-2.5990077987e-05 0.0010595979997 0 -7.3982262085e-05 0.00030235546692 0 -8.6250668418e-05 -3.2610873616e-05 0 
-6.1641186502e-05 -0.00027413709645 0 -3.9712260831e-05 -0.00040321941318 0 -2.7078488391e-05 -0.00040721744582 0 
-1.0748929742e-05 -0.00024476863757 0 2.7249856583e-06 4.038661692e-06 0 1.3282353068e-05 2.0170434112e-05 0 
3.4082717411e-05 3.4718225442e-05 0 6.6301203808e-05 4.1439160263e-05 0 0.00011729459734 3.4639028142e-05 0 
0.00022039560521 1.0871352025e-05 0 0.00039268897069 0.00010093524734 0 0.00056304089791 6.9416679873e-05 0 
0.00065533149399 2.2873916212e-05 0 0.00060063116166 -7.7574248547e-05 0 0.00017180572535 -0.00035125118776 0 
-0.00044924410138 -0.00026979863898 0 -0.00035952137018 0.00035952137018 0 -5.8007396257e-05 0.00097560052546 0 
-0.00016171189227 0.00023465626106 0 -0.00020852489942 -2.3993081222e-05 0 -0.00018855355075 -0.00023817405826 0 
-0.00014353774479 -0.00037223771972 0 -9.079316254e-05 -0.00037282078458 0 -3.0988565107e-05 -0.00020303114272 0 
3.8440442835e-06 1.0607691634e-05 0 1.7940518927e-05 3.8255246223e-05 0 4.4103937538e-05 6.3597196286e-05 0 
8.132914133e-05 8.2003879607e-05 0 0.00012977368348 9.3512244485e-05 0 0.00018591342826 0.00011123888833 0 
0.00020056054864 0.0001875081969 0 0.00019058817321 0.00014322328209 0 0.00020109952142 5.1869258301e-05 0 
0.00018250884139 -0.00017986060301 0 9.139853475e-05 -0.00076890057624 0 -9.6073498973e-05 -0.00066067111095 0 
-0.00010857366598 0.00082761640634 0 -8.2307404814e-05 0.00083528572439 0 -0.00021110373303 0.0001424702379 0 
-0.00026056221613 -2.8078548315e-05 0 -0.00024211921771 -0.00019567424409 0 -0.00018654372915 -0.00031414623937 0 
-0.00011097574988 -0.00030259970342 0 -3.4785350523e-05 -0.00013725722709 0 4.6879024609e-06 1.9139638378e-05 0 
2.1007246564e-05 6.0139118225e-05 0 4.9237418813e-05 9.6106915145e-05 0 8.5510892331e-05 0.00012299283806 0 
0.00012543722567 0.00014089416152 0 0.00016045319247 0.00015501268287 0 0.00017160836661 0.00016953669688 0 
0.00015832734605 0.00013794138612 0 0.00014023021975 4.9565376183e-05 0 0.00015110309569 -0.00018527452498 0 
0.00021570526211 -0.00078999479448 0 0.00028319351649 -0.00075956067205 0 0.00015268889419 0.00078350117814 0 
-0.00011106947947 0.0006419088401 0 -0.00024438791867 7.3732354777e-05 0 -0.00026539771481 -2.9808944451e-05 0 
-0.00024244114276 -0.00015254427747 0 -0.00018154529032 -0.00024080486498 0 -9.6861456029e-05 -0.00021568926425 0 
-2.5678032849e-05 -7.6793843722e-05 0 5.2706676079e-06 2.9098208447e-05 0 2.252678674e-05 8.3756011391e-05 0 
5.0224140988e-05 0.00012841754848 0 8.2845549776e-05 0.00015957708703 0 0.00011530209662 0.00017669279273 0 
0.00014152547236 0.0001804533942 0 0.00015441865273 0.00016814434005 0 0.0001535898824 0.00012522395207 0 
0.00014951875704 4.0114558573e-05 0 0.00017823013834 -0.00013623945013 0 0.00029139270825 -0.00066126513301 0 
0.00047856673081 -0.00063362805659 0 0.00029115753719 0.00033965474676 0 -0.00014604446061 0.00038479490002 0 
-0.00027114015487 7.2432161408e-05 0 -0.00023841305941 -1.6791451764e-05 0 -0.00020332110586 -0.00010751324456 0 
-0.00014199834051 -0.00016361728011 0 -6.6970807643e-05 -0.00013316548197 0 -1.4976207842e-05 -3.6139603031e-05 0 
5.4683980474e-06 3.9837274102e-05 0 2.2121805246e-05 0.00010692647207 0 4.6723432508e-05 0.00015754606931 0 
7.3484207822e-05 0.0001898307503 0 9.8518934884e-05 0.00020393040337 0 0.00011893667911 0.00019985690352 0 
0.00013247483056 0.00017517216255 0 0.0001397257612 0.00012461828988 0 0.0001462460962 4.3169430406e-05 0 
0.00016508696576 -9.17420711e-05 0 0.00024845706009 -0.00050922984781 0 0.00035700930932 -0.00048993707001 0 
0.00028096454509 -6.7490197664e-05 0 0.00010960069612 -5.5376441733e-05 0 3.1952823177e-05 -2.2271431215e-05 0 
1.3101749612e-05 3.4203576498e-06 0 -5.7536501746e-05 0.0001646918304 0 -0.0001493151012 7.5660937311e-05 0 
-0.00016362155835 -1.5995893512e-06 0 -0.0001416132366 -6.5604831662e-05 0 -9.4053250573e-05 -9.6642941634e-05 0 
-4.0228153596e-05 -7.1287190596e-05 0 -7.6841270922e-06 -1.3479268097e-05 0 5.0675949806e-06 5.037326713e-05 0 
1.922577573e-05 0.00012720206699 0 3.812599378e-05 0.0001807723197 0 5.6868026355e-05 0.0002121073078 0 
7.3428493378e-05 0.00022324903996 0 8.7172224752e-05 0.00021469974254 0 9.7734459103e-05 0.00018442970934 0 
0.000105331999 0.00013020921363 0 0.00011085069776 4.9617540418e-05 0 0.00011499106084 -7.5208948474e-05 0 
0.00016527357227 -0.00039211036468 0 0.00023540995022 -0.00042836792596 0 0.00021161066021 -0.00022890339595 0 
0.00013107698808 -0.00014586076455 0 6.9855751427e-05 -7.0656217994e-05 0 2.5218183876e-05 -1.1683496687e-05 0 
-2.8110889126e-05 5.5828360376e-05 0 -8.0341307247e-05 4.0515389756e-05 0 -9.8255827087e-05 1.3249812132e-06 0 
-8.6438662685e-05 -3.4703916069e-05 0 -5.5381054182e-05 -4.89262627e-05 0 -2.1978650149e-05 -3.1776368519e-05 0 
-3.6638637417e-06 -2.131277263e-06 0 3.8978823371e-06 5.9338744448e-05 0 1.3528147574e-05 0.00014202503565 0 
2.4356759206e-05 0.00019567818072 0 3.3392678737e-05 0.00022497939889 0 4.0315610436e-05 0.00023386034759 0 
4.5459678998e-05 0.00022297623484 0 4.8980710596e-05 0.00019023648298 0 5.0585245583e-05 0.00013360451487 0 
4.9061203673e-05 5.0216896026e-05 0 4.4735073051e-05 -7.5994071626e-05 0 7.3435995017e-05 -0.00031234180814 0 
0.00012538135383 -0.00038605474573 0 0.00013362744811 -0.00028676977191 0 0.0001031672867 -0.00019898822214 0 
6.6427794201e-05 -0.00011548948956 0 2.9888165563e-05 -4.8027421308e-05 0 -7.8528987026e-06 1.1021477285e-06 0 
-3.9801872484e-05 1.1062210501e-05 0 -5.3310780557e-05 -6.4526744476e-07 0 -4.7696945579e-05 -1.5302668031e-05 0 
-2.9847955901e-05 -1.9420912558e-05 0 -1.1209049036e-05 -9.2404077624e-06 0 -1.6620054724e-06 3.1945919511e-06 0 
1.9707902029e-06 6.5207416988e-05 0 5.3944743806e-06 0.00014921031253 0 6.6223736576e-06 0.00020054941475 0 
4.8688495443e-06 0.00022739056027 0 1.0480103273e-06 0.00023455127869 0 -4.0252948194e-06 0.00022235606716 0 
-1.0117448477e-05 0.00018828552861 0 -1.7301980746e-05 0.00012997547196 0 -2.5839982543e-05 4.3783895227e-05 0 
-3.2375157453e-05 -8.0422376358e-05 0 -1.286503911e-05 -0.0002597024631 0 3.0406745095e-05 -0.00034347694775 0 
5.6821126122e-05 -0.00029468709458 0 5.7375321836e-05 -0.00022097686516 0 4.4504709594e-05 -0.00014311095129 0 
2.4527766255e-05 -7.692253156e-05 0 2.000605231e-06 -3.0270967309e-05 0 -1.6909761574e-05 -8.4240150482e-06 0 
-2.5844496372e-05 -3.602684767e-06 0 -2.3752750339e-05 -4.6396696975e-06 0 -1.4648654919e-05 -3.1308257934e-06 0 
-5.227988236e-06 2.5290790222e-06 0 -6.717697712e-07 5.5283671946e-06 0 -4.9226275102e-07 6.668594444e-05 0 
-4.2010063416e-06 0.00014744672566 0 -1.3052303084e-05 0.00019468960415 0 -2.5727505316e-05 0.00021882164453 0 
-4.0478614926e-05 0.00022454824561 0 -5.6217471956e-05 0.00021154693806 0 -7.2001416868e-05 0.00017721855913 0 
-8.6980914267e-05 0.00011887841177 0 -9.9767071164e-05 3.3556796728e-05 0 -0.00010476813633 -8.1731517933e-05 0 