# vtk DataFile Version 4.2
vtk output
ASCII
DATASET POLYDATA
POINTS 418 float
0 0 0 0.01 0 0 0.01 0.01 0 
0 0.01 0 0.02 0 0 0.02 0.01 0 
0.03 0 0 0.03 0.01 0 0.04 0 0 
0.04 0.01 0 0.05 0 0 0.05 0.01 0 
0.06 0 0 0.06 0.01 0 0.07 0 0 
0.07 0.01 0 0.08 0 0 0.08 0.01 0 
0.09 0 0 0.09 0.01 0 0.1 0 0 
0.1 0.01 0 0.11 0 0 0.11 0.01 0 
0.12 0 0 0.12 0.01 0 0.13 0 0 
0.13 0.01 0 0.14 0 0 0.14 0.01 0 
0.15 0 0 0.15 0.01 0 0.16 0 0 
0.16 0.01 0 0.17 0 0 0.17 0.01 0 
0.18 0 0 0.18 0.01 0 0.19 0 0 
0.19 0.01 0 0.01 0.02 0 0 0.02 0 
0.02 0.02 0 0.03 0.02 0 0.04 0.02 0 
0.05 0.02 0 0.06 0.02 0 0.07 0.02 0 
0.08 0.02 0 0.09 0.02 0 0.1 0.02 0 
0.11 0.02 0 0.12 0.02 0 0.13 0.02 0 
0.14 0.02 0 0.15 0.02 0 0.16 0.02 0 
0.17 0.02 0 0.18 0.02 0 0.19 0.02 0 
0.01 0.03 0 0 0.03 0 0.02 0.03 0 
0.03 0.03 0 0.04 0.03 0 0.05 0.03 0 
0.06 0.03 0 0.07 0.03 0 0.08 0.03 0 
0.09 0.03 0 0.1 0.03 0 0.11 0.03 0 
0.12 0.03 0 0.13 0.03 0 0.14 0.03 0 
0.15 0.03 0 0.16 0.03 0 0.17 0.03 0 
0.18 0.03 0 0.19 0.03 0 0.01 0.04 0 
0 0.04 0 0.02 0.04 0 0.03 0.04 0 
0.04 0.04 0 0.05 0.04 0 0.06 0.04 0 
0.07 0.04 0 0.08 0.04 0 0.09 0.04 0 
0.1 0.04 0 0.11 0.04 0 0.12 0.04 0 
0.13 0.04 0 0.14 0.04 0 0.15 0.04 0 
0.16 0.04 0 0.17 0.04 0 0.18 0.04 0 
0.19 0.04 0 0.01 0.05 0 0 0.05 0 
0.02 0.05 0 0.03 0.05 0 0.04 0.05 0 
0.05 0.05 0 0.06 0.05 0 0.07 0.05 0 
0.08 0.05 0 0.09 0.05 0 0.1 0.05 0 
0.11 0.05 0 0.12 0.05 0 0.13 0.05 0 
0.14 0.05 0 0.15 0.05 0 0.16 0.05 0 
0.17 0.05 0 0.18 0.05 0 0.19 0.05 0 
0.01 0.06 0 0 0.06 0 0.02 0.06 0 
0.03 0.06 0 0.04 0.06 0 0.05 0.06 0 
0.06 0.06 0 0.07 0.06 0 0.08 0.06 0 
0.09 0.06 0 0.1 0.06 0 0.11 0.06 0 
0.12 0.06 0 0.13 0.06 0 0.14 0.06 0 
0.15 0.06 0 0.16 0.06 0 0.17 0.06 0 
0.18 0.06 0 0.19 0.06 0 0.01 0.07 0 
0 0.07 0 0.02 0.07 0 0.03 0.07 0 
0.04 0.07 0 0.05 0.07 0 0.06 0.07 0 
0.07 0.07 0 0.08 0.07 0 0.09 0.07 0 
0.1 0.07 0 0.11 0.07 0 0.12 0.07 0 
0.13 0.07 0 0.14 0.07 0 0.15 0.07 0 
0.16 0.07 0 0.17 0.07 0 0.18 0.07 0 
0.19 0.07 0 0.01 0.08 0 0 0.08 0 
0.02 0.08 0 0.03 0.08 0 0.04 0.08 0 
0.05 0.08 0 0.06 0.08 0 0.07 0.08 0 
0.08 0.08 0 0.09 0.08 0 0.1 0.08 0 
0.11 0.08 0 0.12 0.08 0 0.13 0.08 0 
0.14 0.08 0 0.15 0.08 0 0.16 0.08 0 
0.17 0.08 0 0.18 0.08 0 0.19 0.08 0 
0.01 0.09 0 0 0.09 0 0.02 0.09 0 
0.03 0.09 0 0.04 0.09 0 0.05 0.09 0 
0.06 0.09 0 0.07 0.09 0 0.08 0.09 0 
0.09 0.09 0 0.1 0.09 0 0.11 0.09 0 
0.12 0.09 0 0.13 0.09 0 0.14 0.09 0 
0.15 0.09 0 0.16 0.09 0 0.17 0.09 0 
0.18 0.09 0 0.19 0.09 0 0.01 0.1 0 
0 0.1 0 0.02 0.1 0 0.03 0.1 0 
0.04 0.1 0 0.05 0.1 0 0.06 0.1 0 
0.07 0.1 0 0.08 0.1 0 0.09 0.1 0 
0.1 0.1 0 0.11 0.1 0 0.12 0.1 0 
0.13 0.1 0 0.14 0.1 0 0.15 0.1 0 
0.16 0.1 0 0.17 0.1 0 0.18 0.1 0 
0.19 0.1 0 0.01 0.11 0 0 0.11 0 
0.02 0.11 0 0.03 0.11 0 0.04 0.11 0 
0.05 0.11 0 0.06 0.11 0 0.07 0.11 0 
0.08 0.11 0 0.09 0.11 0 0.1 0.11 0 
0.11 0.11 0 0.12 0.11 0 0.13 0.11 0 
0.14 0.11 0 0.15 0.11 0 0.16 0.11 0 
0.17 0.11 0 0.18 0.11 0 0.19 0.11 0 
0.01 0.12 0 0 0.12 0 0.02 0.12 0 
0.03 0.12 0 0.04 0.12 0 0.05 0.12 0 
0.06 0.12 0 0.07 0.12 0 0.08 0.12 0 
0.09 0.12 0 0.1 0.12 0 0.11 0.12 0 
0.12 0.12 0 0.13 0.12 0 0.14 0.12 0 
0.15 0.12 0 0.16 0.12 0 0.17 0.12 0 
0.18 0.12 0 0.19 0.12 0 0.01 0.13 0 
0 0.13 0 0.02 0.13 0 0.03 0.13 0 
0.04 0.13 0 0.05 0.13 0 0.06 0.13 0 
0.07 0.13 0 0.08 0.13 0 0.09 0.13 0 
0.1 0.13 0 0.11 0.13 0 0.12 0.13 0 
0.13 0.13 0 0.14 0.13 0 0.15 0.13 0 
0.16 0.13 0 0.17 0.13 0 0.18 0.13 0 
0.19 0.13 0 0.01 0.14 0 0 0.14 0 
0.02 0.14 0 0.03 0.14 0 0.04 0.14 0 
0.05 0.14 0 0.06 0.14 0 0.07 0.14 0 
0.08 0.14 0 0.13 0.14 0 0.12 0.14 0 
0.14 0.14 0 0.15 0.14 0 0.16 0.14 0 
0.17 0.14 0 0.18 0.14 0 0.19 0.14 0 
0.01 0.15 0 0 0.15 0 0.02 0.15 0 
0.03 0.15 0 0.04 0.15 0 0.05 0.15 0 
0.06 0.15 0 0.07 0.15 0 0.08 0.15 0 
0.13 0.15 0 0.12 0.15 0 0.14 0.15 0 
0.15 0.15 0 0.16 0.15 0 0.17 0.15 0 
0.18 0.15 0 0.19 0.15 0 0.01 0.16 0 
0 0.16 0 0.02 0.16 0 0.03 0.16 0 
0.04 0.16 0 0.05 0.16 0 0.06 0.16 0 
0.07 0.16 0 0.08 0.16 0 0.13 0.16 0 
0.12 0.16 0 0.14 0.16 0 0.15 0.16 0 
0.16 0.16 0 0.17 0.16 0 0.18 0.16 0 
0.19 0.16 0 0.01 0.17 0 0 0.17 0 
0.02 0.17 0 0.03 0.17 0 0.04 0.17 0 
0.05 0.17 0 0.06 0.17 0 0.07 0.17 0 
0.08 0.17 0 0.13 0.17 0 0.12 0.17 0 
0.14 0.17 0 0.15 0.17 0 0.16 0.17 0 
0.17 0.17 0 0.18 0.17 0 0.19 0.17 0 
0.01 0.18 0 0 0.18 0 0.02 0.18 0 
0.03 0.18 0 0.04 0.18 0 0.05 0.18 0 
0.13 0.18 0 0.12 0.18 0 0.14 0.18 0 
0.15 0.18 0 0.16 0.18 0 0.17 0.18 0 
0.18 0.18 0 0.19 0.18 0 0.01 0.19 0 
0 0.19 0 0.02 0.19 0 0.03 0.19 0 
0.04 0.19 0 0.05 0.19 0 0.13 0.19 0 
0.12 0.19 0 0.14 0.19 0 0.15 0.19 0 
0.16 0.19 0 0.17 0.19 0 0.18 0.19 0 
0.19 0.19 0 0.01 0.2 0 0 0.2 0 
0.02 0.2 0 0.03 0.2 0 0.04 0.2 0 
0.05 0.2 0 0.13 0.2 0 0.12 0.2 0 
0.14 0.2 0 0.15 0.2 0 0.16 0.2 0 
0.17 0.2 0 0.18 0.2 0 0.19 0.2 0 
0.01 0.21 0 0 0.21 0 0.02 0.21 0 
0.03 0.21 0 0.04 0.21 0 0.05 0.21 0 
0.13 0.21 0 0.12 0.21 0 0.14 0.21 0 
0.15 0.21 0 0.16 0.21 0 0.17 0.21 0 
0.18 0.21 0 0.19 0.21 0 0.01 0.22 0 
0 0.22 0 0.02 0.22 0 0.03 0.22 0 
0.04 0.22 0 0.05 0.22 0 0.13 0.22 0 
0.12 0.22 0 0.14 0.22 0 0.15 0.22 0 
0.16 0.22 0 0.17 0.22 0 0.18 0.22 0 
0.19 0.22 0 
POLYGONS 367 1835
4 391 390 404 405 
4 390 392 406 404 
4 392 393 407 406 
4 393 394 408 407 
4 394 395 409 408 
4 397 396 410 411 
4 396 398 412 410 
4 398 399 413 412 
4 399 400 414 413 
4 400 401 415 414 
4 401 402 416 415 
4 402 403 417 416 
4 377 376 390 391 
4 376 378 392 390 
4 378 379 393 392 
4 379 380 394 393 
4 380 381 395 394 
4 383 382 396 397 
4 382 384 398 396 
4 384 385 399 398 
4 385 386 400 399 
4 386 387 401 400 
4 387 388 402 401 
4 388 389 403 402 
4 363 362 376 377 
4 362 364 378 376 
4 364 365 379 378 
4 365 366 380 379 
4 366 367 381 380 
4 369 368 382 383 
4 368 370 384 382 
4 370 371 385 384 
4 371 372 386 385 
4 372 373 387 386 
4 373 374 388 387 
4 374 375 389 388 
4 349 348 362 363 
4 348 350 364 362 
4 350 351 365 364 
4 351 352 366 365 
4 352 353 367 366 
4 355 354 368 369 
4 354 356 370 368 
4 356 357 371 370 
4 357 358 372 371 
4 358 359 373 372 
4 359 360 374 373 
4 360 361 375 374 
4 332 331 348 349 
4 331 333 350 348 
4 333 334 351 350 
4 334 335 352 351 
4 335 336 353 352 
4 341 340 354 355 
4 340 342 356 354 
4 342 343 357 356 
4 343 344 358 357 
4 344 345 359 358 
4 345 346 360 359 
4 346 347 361 360 
4 315 314 331 332 
4 314 316 333 331 
4 316 317 334 333 
4 317 318 335 334 
4 318 319 336 335 
4 319 320 337 336 
4 320 321 338 337 
4 321 322 339 338 
4 324 323 340 341 
4 323 325 342 340 
4 325 326 343 342 
4 326 327 344 343 
4 327 328 345 344 
4 328 329 346 345 
4 329 330 347 346 
4 298 297 314 315 
4 297 299 316 314 
4 299 300 317 316 
4 300 301 318 317 
4 301 302 319 318 
4 302 303 320 319 
4 303 304 321 320 
4 304 305 322 321 
4 307 306 323 324 
4 306 308 325 323 
4 308 309 326 325 
4 309 310 327 326 
4 310 311 328 327 
4 311 312 329 328 
4 312 313 330 329 
4 281 280 297 298 
4 280 282 299 297 
4 282 283 300 299 
4 283 284 301 300 
4 284 285 302 301 
4 285 286 303 302 
4 286 287 304 303 
4 287 288 305 304 
4 290 289 306 307 
4 289 291 308 306 
4 291 292 309 308 
4 292 293 310 309 
4 293 294 311 310 
4 294 295 312 311 
4 295 296 313 312 
4 261 260 280 281 
4 260 262 282 280 
4 262 263 283 282 
4 263 264 284 283 
4 264 265 285 284 
4 265 266 286 285 
4 266 267 287 286 
4 267 268 288 287 
4 272 273 289 290 
4 273 274 291 289 
4 274 275 292 291 
4 275 276 293 292 
4 276 277 294 293 
4 277 278 295 294 
4 278 279 296 295 
4 241 240 260 261 
4 240 242 262 260 
4 242 243 263 262 
4 243 244 264 263 
4 244 245 265 264 
4 245 246 266 265 
4 246 247 267 266 
4 247 248 268 267 
4 248 249 269 268 
4 249 250 270 269 
4 250 251 271 270 
4 251 252 272 271 
4 252 253 273 272 
4 253 254 274 273 
4 254 255 275 274 
4 255 256 276 275 
4 256 257 277 276 
4 257 258 278 277 
4 258 259 279 278 
4 221 220 240 241 
4 220 222 242 240 
4 222 223 243 242 
4 223 224 244 243 
4 224 225 245 244 
4 225 226 246 245 
4 226 227 247 246 
4 227 228 248 247 
4 228 229 249 248 
4 229 230 250 249 
4 230 231 251 250 
4 231 232 252 251 
4 232 233 253 252 
4 233 234 254 253 
4 234 235 255 254 
4 235 236 256 255 
4 236 237 257 256 
4 237 238 258 257 
4 238 239 259 258 
4 201 200 220 221 
4 200 202 222 220 
4 202 203 223 222 
4 203 204 224 223 
4 204 205 225 224 
4 205 206 226 225 
4 206 207 227 226 
4 207 208 228 227 
4 208 209 229 228 
4 209 210 230 229 
4 210 211 231 230 
4 211 212 232 231 
4 212 213 233 232 
4 213 214 234 233 
4 214 215 235 234 
4 215 216 236 235 
4 216 217 237 236 
4 217 218 238 237 
4 218 219 239 238 
4 181 180 200 201 
4 180 182 202 200 
4 182 183 203 202 
4 183 184 204 203 
4 184 185 205 204 
4 185 186 206 205 
4 186 187 207 206 
4 187 188 208 207 
4 188 189 209 208 
4 189 190 210 209 
4 190 191 211 210 
4 191 192 212 211 
4 192 193 213 212 
4 193 194 214 213 
4 194 195 215 214 
4 195 196 216 215 
4 196 197 217 216 
4 197 198 218 217 
4 198 199 219 218 
4 161 160 180 181 
4 160 162 182 180 
4 162 163 183 182 
4 163 164 184 183 
4 164 165 185 184 
4 165 166 186 185 
4 166 167 187 186 
4 167 168 188 187 
4 168 169 189 188 
4 169 170 190 189 
4 170 171 191 190 
4 171 172 192 191 
4 172 173 193 192 
4 173 174 194 193 
4 174 175 195 194 
4 175 176 196 195 
4 176 177 197 196 
4 177 178 198 197 
4 178 179 199 198 
4 141 140 160 161 
4 140 142 162 160 
4 142 143 163 162 
4 143 144 164 163 
4 144 145 165 164 
4 145 146 166 165 
4 146 147 167 166 
4 147 148 168 167 
4 148 149 169 168 
4 149 150 170 169 
4 150 151 171 170 
4 151 152 172 171 
4 152 153 173 172 
4 153 154 174 173 
4 154 155 175 174 
4 155 156 176 175 
4 156 157 177 176 
4 157 158 178 177 
4 158 159 179 178 
4 121 120 140 141 
4 120 122 142 140 
4 122 123 143 142 
4 123 124 144 143 
4 124 125 145 144 
4 125 126 146 145 
4 126 127 147 146 
4 127 128 148 147 
4 128 129 149 148 
4 129 130 150 149 
4 130 131 151 150 
4 131 132 152 151 
4 132 133 153 152 
4 133 134 154 153 
4 134 135 155 154 
4 135 136 156 155 
4 136 137 157 156 
4 137 138 158 157 
4 138 139 159 158 
4 101 100 120 121 
4 100 102 122 120 
4 102 103 123 122 
4 103 104 124 123 
4 104 105 125 124 
4 105 106 126 125 
4 106 107 127 126 
4 107 108 128 127 
4 108 109 129 128 
4 109 110 130 129 
4 110 111 131 130 
4 111 112 132 131 
4 112 113 133 132 
4 113 114 134 133 
4 114 115 135 134 
4 115 116 136 135 
4 116 117 137 136 
4 117 118 138 137 
4 118 119 139 138 
4 81 80 100 101 
4 80 82 102 100 
4 82 83 103 102 
4 83 84 104 103 
4 84 85 105 104 
4 85 86 106 105 
4 86 87 107 106 
4 87 88 108 107 
4 88 89 109 108 
4 89 90 110 109 
4 90 91 111 110 
4 91 92 112 111 
4 92 93 113 112 
4 93 94 114 113 
4 94 95 115 114 
4 95 96 116 115 
4 96 97 117 116 
4 97 98 118 117 
4 98 99 119 118 
4 61 60 80 81 
4 60 62 82 80 
4 62 63 83 82 
4 63 64 84 83 
4 64 65 85 84 
4 65 66 86 85 
4 66 67 87 86 
4 67 68 88 87 
4 68 69 89 88 
4 69 70 90 89 
4 70 71 91 90 
4 71 72 92 91 
4 72 73 93 92 
4 73 74 94 93 
4 74 75 95 94 
4 75 76 96 95 
4 76 77 97 96 
4 77 78 98 97 
4 78 79 99 98 
4 41 40 60 61 
4 40 42 62 60 
4 42 43 63 62 
4 43 44 64 63 
4 44 45 65 64 
4 45 46 66 65 
4 46 47 67 66 
4 47 48 68 67 
4 48 49 69 68 
4 49 50 70 69 
4 50 51 71 70 
4 51 52 72 71 
4 52 53 73 72 
4 53 54 74 73 
4 54 55 75 74 
4 55 56 76 75 
4 56 57 77 76 
4 57 58 78 77 
4 58 59 79 78 
4 3 2 40 41 
4 2 5 42 40 
4 5 7 43 42 
4 7 9 44 43 
4 9 11 45 44 
4 11 13 46 45 
4 13 15 47 46 
4 15 17 48 47 
4 17 19 49 48 
4 19 21 50 49 
4 21 23 51 50 
4 23 25 52 51 
4 25 27 53 52 
4 27 29 54 53 
4 29 31 55 54 
4 31 33 56 55 
4 33 35 57 56 
4 35 37 58 57 
4 37 39 59 58 
4 0 1 2 3 
4 1 4 5 2 
4 4 6 7 5 
4 6 8 9 7 
4 8 10 11 9 
4 10 12 13 11 
4 12 14 15 13 
4 14 16 17 15 
4 16 18 19 17 
4 18 20 21 19 
4 20 22 23 21 
4 22 24 25 23 
4 24 26 27 25 
4 26 28 29 27 
4 28 30 31 29 
4 30 32 33 31 
4 32 34 35 33 
4 34 36 37 35 
4 36 38 39 37 

CELL_DATA 367
SCALARS pressure double
LOOKUP_TABLE default
0.00015893983595 8.5047837261e-05 6.1632125702e-05 0.00026368061575 0.00061417981348 2.519754985e-05 2.5036548403e-05 2.5042113909e-05 2.5186555249e-05 
2.5326561548e-05 2.5326862422e-05 2.5174920479e-05 0.00011505883679 4.5403741489e-05 -6.155875873e-05 -9.2617356544e-05 7.0384014445e-05 2.5358488718e-05 
2.5136716494e-05 2.5119614434e-05 2.5179202573e-05 2.5238392947e-05 2.5223236318e-05 2.5022932169e-05 2.5388761836e-05 -2.5952963717e-05 -0.00012705377478 
-0.00018269738539 -0.00010277624195 2.5452169278e-05 2.5030639093e-05 2.5036938697e-05 2.5164846218e-05 2.5289669496e-05 2.5295727764e-05 2.4930112741e-05 
-1.4925964863e-05 -3.5441976738e-05 -9.2907873603e-05 -0.00013328541032 -9.3181250051e-05 2.5345458015e-05 2.4676276799e-05 2.4801096891e-05 2.5121681206e-05 
2.5430490681e-05 2.5540669655e-05 2.5001052074e-05 -2.4314174874e-05 -2.2245710948e-05 -4.953933664e-05 -8.0724572928e-05 -0.00013228786953 2.4738080817e-05 
2.3845718676e-05 2.42970708e-05 2.5020460699e-05 2.5706026605e-05 2.6079276672e-05 2.5438625354e-05 -2.1954459226e-05 -1.1621036004e-05 -1.9082656142e-05 
-2.5968858531e-05 -4.0028128382e-05 -3.4244282737e-06 -2.9286188593e-06 -3.2079646677e-06 2.2965310733e-05 2.2212288764e-05 2.3412781285e-05 2.486816399e-05 
2.6204814532e-05 2.7081820816e-05 2.659959332e-05 -1.703020712e-05 -9.3367645732e-06 -9.470271042e-06 -1.1254292999e-05 -1.1756494269e-05 -6.3725359481e-06 
-4.7321837828e-06 -3.506224812e-06 1.8611293141e-05 1.955264607e-05 2.2279332163e-05 2.4894007444e-05 2.7155412613e-05 2.8771237645e-05 2.8982299601e-05 
-1.3218074116e-05 -9.099938199e-06 -8.0634312605e-06 -8.2977777508e-06 -8.130590508e-06 -6.8058462404e-06 -5.7412183126e-06 -3.0777168653e-06 9.0250507907e-06 
1.6637625635e-05 2.1890906954e-05 2.5876317401e-05 2.9033807768e-05 3.1357262907e-05 3.2988711958e-05 -1.0995593204e-05 -8.9834940815e-06 -8.114272807e-06 
-8.0189714492e-06 -8.0231653853e-06 -7.8108958807e-06 -7.7478040092e-06 -4.4906002893e-06 -9.8664529335e-06 1.7892564748e-05 2.4257016805e-05 2.8753299344e-05 
3.2117498795e-05 3.4626209589e-05 3.8189375616e-05 -9.8038412301e-06 -8.7416011462e-06 -8.1844575114e-06 -8.1262903359e-06 -8.4458290849e-06 -9.3211648966e-06 
-1.237817958e-05 -2.6444769762e-05 -5.6958586428e-05 -1.8070918545e-05 -9.6194597668e-06 1.4443626957e-05 8.6637881856e-06 1.7561976697e-05 2.4676355163e-05 
3.1000105867e-05 3.445027022e-05 3.687697648e-05 4.2088027287e-05 -9.0933077822e-06 -8.4426151009e-06 -8.1339098595e-06 -8.1913566677e-06 -8.7246580825e-06 
-1.0046396997e-05 -1.3159753594e-05 -2.0258101904e-05 -3.4437495294e-05 -3.3150735265e-05 -3.183884843e-05 -2.2497370319e-05 -1.3564108483e-05 -2.1740101413e-06 
1.0935156942e-05 2.2442083776e-05 3.0042420679e-05 3.4379482707e-05 4.0151533347e-05 -8.5208030559e-06 -8.1006664898e-06 -7.973994282e-06 -8.1464665685e-06 
-8.7878830496e-06 -1.0190751498e-05 -1.2925268723e-05 -1.7841629743e-05 -2.5489487789e-05 -3.0173751426e-05 -3.3173992979e-05 -3.1711864349e-05 -2.6020138117e-05 
-1.5481819036e-05 -1.7302127706e-06 1.1738480081e-05 2.1868044345e-05 2.7833700667e-05 3.2659589101e-05 -7.9199419022e-06 -7.6982549633e-06 -7.7028319045e-06 
-7.958061742e-06 -8.6311757423e-06 -9.9708619761e-06 -1.2348466395e-05 -1.6180668298e-05 -2.1450172551e-05 -2.6421859458e-05 -3.0289607131e-05 -3.1406942204e-05 
-2.8463507898e-05 -2.05755065e-05 -8.8293145015e-06 3.7572229846e-06 1.3971634207e-05 2.0169978441e-05 2.3038645686e-05 -7.2496697384e-06 -7.2340236153e-06 
-7.3280493207e-06 -7.6192146543e-06 -8.255795883e-06 -9.441751517e-06 -1.1434958867e-05 -1.4458311723e-05 -1.8426907715e-05 -2.2596398025e-05 -2.6063113995e-05 
-2.7554758812e-05 -2.5755104256e-05 -1.9861556137e-05 -1.0558375488e-05 -1.6364329961e-07 8.5283199875e-06 1.3721307548e-05 1.4427446853e-05 -6.550961001e-06 
-6.7391962087e-06 -6.8868554377e-06 -7.1681652785e-06 -7.7103931669e-06 -8.6757604061e-06 -1.0245921466e-05 -1.2546909662e-05 -1.5491538447e-05 -1.8625887328e-05 
-2.1201994824e-05 -2.2220702e-05 -2.0671083414e-05 -1.6018139665e-05 -8.8241127071e-06 -8.5429558586e-07 5.6949643803e-06 9.3013394053e-06 8.291493087e-06 
-5.9093292043e-06 -6.2719155722e-06 -6.4440405649e-06 -6.6826270639e-06 -7.0941304251e-06 -7.8027252568e-06 -8.9335712963e-06 -1.0555361183e-05 -1.2580096692e-05 
-1.4670785075e-05 -1.62427625e-05 -1.6549547595e-05 -1.490696685e-05 -1.1062839813e-05 -5.5689390327e-06 2.1210581614e-07 4.6643552882e-06 6.7065897895e-06 
4.7041471091e-06 -5.4195051509e-06 -5.8989779066e-06 -6.0744525532e-06 -6.2560599796e-06 -6.528412209e-06 -6.9807914224e-06 -7.6937668926e-06 -8.6977927784e-06 
-9.9067609351e-06 -1.1058884455e-05 -1.1717375755e-05 -1.1361695449e-05 -9.5837007055e-06 -6.3518935767e-06 -2.2111770023e-06 1.7933778003e-06 4.5454162424e-06 
5.3948977405e-06 3.0655862038e-06 -5.1532592623e-06 -5.6728493734e-06 -5.8392926979e-06 -5.9684860057e-06 -6.1207795033e-06 -6.35304205e-06 -6.7093289426e-06 
-7.1932561535e-06 -7.7256422769e-06 -8.1093029799e-06 -8.0380477995e-06 -7.1797823617e-06 -5.3336680393e-06 -2.6083686092e-06 4.9012335054e-07 3.1816848373e-06 
4.746072328e-06 4.8675896552e-06 2.6603616206e-06 -5.1348294238e-06 -5.6123185298e-06 -5.7665123158e-06 -5.8636611938e-06 -5.9368748252e-06 -6.0126368898e-06 
-6.1041464534e-06 -6.1945229463e-06 -6.212976302e-06 -6.0179274234e-06 -5.4118810978e-06 -4.2094662188e-06 -2.3530935912e-06 -2.5032011862e-08 2.3316456008e-06 
4.1509068328e-06 5.0007873535e-06 4.789670323e-06 2.9449706763e-06 -5.3276792311e-06 -5.6938137215e-06 -5.8437275447e-06 -5.9412074146e-06 -5.9896983388e-06 
-5.9875853567e-06 -5.921462796e-06 -5.7562363741e-06 -5.4248905546e-06 -4.825965164e-06 -3.8428245186e-06 -2.3966084049e-06 -5.2514267187e-07 1.5536492975e-06 
3.458166568e-06 4.777092558e-06 5.2687277241e-06 4.9826160288e-06 3.6190775606e-06 -5.6319214311e-06 -5.856704679e-06 -6.0269911152e-06 -6.1662547968e-06 
-6.2483868189e-06 -6.2480474493e-06 -6.1298109193e-06 -5.8403241127e-06 -5.3066653757e-06 -4.4452274083e-06 -3.1871179006e-06 -1.5229036848e-06 4.4382374372e-07 
2.466382205e-06 4.1935751098e-06 5.2976037741e-06 5.6414371941e-06 5.3689600855e-06 4.5359363453e-06 -5.8517961566e-06 -6.0715416638e-06 -6.3942535844e-06 
-6.6931708587e-06 -6.9275227659e-06 -7.065316176e-06 -7.0556146833e-06 -6.8151074645e-06 -6.2300747745e-06 -5.1776674867e-06 -3.5703539801e-06 -1.4198888767e-06 
1.0996913011e-06 3.6304821799e-06 5.6961620581e-06 6.8680662657e-06 6.9756862375e-06 6.2495440852e-06 5.3917801302e-06 
VECTORS velocity double
-0.00013037284877 -0.00013037284877 0 -0.00041365442216 -0.00015290872462 0 -0.00066925657519 -0.00010269342841 0 
-0.00075858913601 1.3360867592e-05 0 -0.00037261413421 0.00037261413421 0 -3.302078283e-08 -3.302078283e-08 0 
-5.0054300757e-07 -4.3450144191e-07 0 -1.2981355877e-06 -3.6309113824e-07 0 -1.6453073276e-06 1.5919398322e-08 0 
-1.2549016852e-06 3.7448624413e-07 0 -4.6702837447e-07 4.1338706659e-07 0 -2.6820653942e-08 2.6820653942e-08 0 
-4.5322668978e-05 -0.00030606836652 0 -0.00015184984089 -0.00036702195217 0 -0.00025236255631 -0.00024469506931 0 
-0.00025773330634 6.065919765e-05 0 -0.00011189792194 0.00085712619035 0 -4.6628679337e-07 -5.3232835903e-07 0 
-1.9130050212e-06 -1.8494343182e-06 0 -3.5983063922e-06 -1.4310522131e-06 0 -4.2569556572e-06 7.8059468202e-08 0 
-3.4630955045e-06 1.4966119694e-06 0 -1.781576621e-06 1.7606535355e-06 0 -4.2384860933e-07 4.7748991721e-07 0 
2.2810054445e-05 -0.00032858098105 0 5.7240155802e-05 -0.00041660640819 0 8.7230087992e-05 -0.00026563339653 0 
9.4460580365e-05 8.3457267211e-05 0 4.1660593731e-05 0.00092736351856 0 -1.0205223337e-06 -2.0191374861e-06 0 
-3.8056379179e-06 -4.5944590031e-06 0 -6.7115388457e-06 -3.277229827e-06 0 -7.730454057e-06 2.4667260586e-07 0 
-6.3440341648e-06 3.5082788766e-06 0 -3.4277860105e-06 4.3467536661e-06 0 -8.8778264109e-07 1.7891211676e-06 0 
5.4693299146e-05 -0.00025107762746 0 0.00015344700398 -0.00036092595559 0 0.00023517073416 -0.00020960018676 0 
0.00025823016237 5.7713978029e-05 0 0.00012181313305 0.00076388979178 0 -1.9019010696e-06 -4.9415608895e-06 0 
-6.6140058811e-06 -9.1692559956e-06 0 -1.1039741807e-05 -6.034069688e-06 0 -1.2356469762e-05 6.6786930076e-07 0 
-1.0121078229e-05 6.7088936061e-06 0 -5.622679517e-06 8.5607858036e-06 0 -1.5304340539e-06 4.2073378627e-06 0 
5.2573593547e-05 -0.00014381073477 0 0.00016186550934 -0.00026014722766 0 0.0002559022938 -0.00013461840005 0 
0.00031606336511 6.5952690854e-05 0 0.00016945298711 0.00047262367163 0 -3.2992199411e-06 -1.01426819e-05 0 
-1.0503529855e-05 -1.5884549711e-05 0 -1.6249972177e-05 -9.4909542197e-06 0 -1.7430253972e-05 1.6277440824e-06 0 
-1.4150825459e-05 1.126383887e-05 0 -8.089368184e-06 1.4565696527e-05 0 -2.3231344346e-06 8.0609063512e-06 0 
2.943517676e-05 -6.180196446e-05 0 0.0001071637524 -0.00015513550653 0 0.00017640570704 -7.6351382094e-05 0 
0.00017440258894 6.5843626118e-05 0 5.4964677764e-05 0.00020668444718 0 -2.4408438401e-05 1.7113121177e-05 0 
-3.9855993843e-06 3.3097178392e-06 0 -3.3794077253e-07 3.3794077253e-07 0 -5.2588118133e-06 -1.8700713655e-05 0 
-1.4714399626e-05 -2.3986415683e-05 0 -2.0108983372e-05 -1.2530114314e-05 0 -2.0080130013e-05 3.5154757415e-06 0 
-1.6008592054e-05 1.6727073682e-05 0 -9.5077728128e-06 2.1664738231e-05 0 -2.9259152118e-06 1.3309955998e-05 0 
1.2323416467e-05 -2.0043371233e-05 0 5.5070281236e-05 -7.6418659343e-05 0 9.9244991435e-05 -4.1651564449e-05 0 
9.9505078442e-05 2.9400777388e-05 0 5.1869862732e-05 7.6054169015e-05 0 1.1420997605e-05 2.7921418047e-05 0 
3.3762955573e-06 4.8795579383e-06 0 8.1820890862e-07 -1.4232736355e-07 0 -6.8302700698e-06 -3.0789795538e-05 0 
-1.5191004821e-05 -2.9713656364e-05 0 -1.5764688118e-05 -1.2771140677e-05 0 -1.3351531203e-05 6.1985123779e-06 0 
-1.0364552024e-05 2.1102554183e-05 0 -6.8702940772e-06 2.7284334919e-05 0 -2.4533198892e-06 1.8689191099e-05 0 
4.4598919567e-06 -3.2600628094e-06 0 2.5196266249e-05 -2.9718728705e-05 0 5.1444371188e-05 -1.7928679947e-05 0 
5.8331631368e-05 1.2825240072e-05 0 4.4090845261e-05 3.0753704514e-05 0 2.7308595704e-05 1.5990767865e-05 0 
1.7101612501e-05 -1.4414771304e-06 0 6.2602275864e-06 -7.2207638586e-06 0 -1.3300666558e-06 -3.8950132263e-05 0 
4.1293313745e-06 -2.4454656359e-05 0 1.3891222461e-05 -8.8419328925e-06 0 1.576577833e-05 6.557017377e-06 0 
1.123580832e-05 1.9201058352e-05 0 4.4448277851e-06 2.5889108162e-05 0 5.4297336456e-07 2.0599537623e-05 0 
1.7342191055e-06 2.9340482528e-06 0 1.1911299979e-05 -4.999384602e-06 0 2.7928207846e-05 -3.8301124312e-07 0 
3.8284420226e-05 1.2523043927e-05 0 4.0967342518e-05 1.9498036844e-05 0 4.20373088e-05 1.153415226e-05 0 
4.2268100604e-05 -6.9610529242e-06 0 2.0664841069e-05 -3.4145832514e-05 0 4.2714875872e-05 2.4346769524e-06 0 
9.6630530715e-05 -6.4644127009e-06 0 0.00010242496617 -1.1275850007e-05 0 8.4399779016e-05 -7.159696795e-06 0 
5.6664694275e-05 6.5271777384e-07 0 2.7930101993e-05 8.911875923e-06 0 7.1558754051e-06 1.2900688854e-05 0 
1.0174457765e-06 5.6857131348e-06 0 6.9350281412e-06 8.3436137539e-06 0 1.7936909697e-05 1.3292779824e-05 0 
2.9603273126e-05 2.0869828669e-05 0 4.1430015281e-05 2.5660916548e-05 0 5.8409331224e-05 2.3420554781e-05 0 
9.0989441048e-05 1.3963446183e-05 0 0.00016600849091 -1.6545412902e-06 0 0.00029696335746 7.7798734251e-05 0 
0.00043029084618 5.5528754466e-05 0 0.00051485882586 2.903922522e-05 0 0.00052910360185 -1.479444923e-05 0 
0.00046251443795 -6.6451618467e-06 0 0.00036462286565 -4.1360491359e-05 0 0.00027559471766 -5.9613483887e-05 0 
0.00019239125385 -6.0050713882e-05 0 0.00011795451458 -4.8628089144e-05 0 5.7178986278e-05 -3.1317437746e-05 0 
1.5284011896e-05 -9.5391984472e-06 0 8.8070013364e-07 7.5838590449e-06 0 5.0768442572e-06 1.6559194332e-05 0 
1.332301747e-05 2.4325254014e-05 0 2.419938609e-05 3.2380086529e-05 0 3.782438612e-05 3.9602400873e-05 0 
5.6832653376e-05 4.5466653656e-05 0 8.535795003e-05 5.3022753786e-05 0 0.00012458258081 7.3529831755e-05 0 
0.00013924133123 0.00014822797817 0 0.00014368197236 0.0001228676404 0 0.0001744535332 7.7039879806e-05 0 
0.00021742026771 -5.5835933186e-06 0 0.00024554582038 -5.4319628986e-05 0 0.00024019894391 -9.6924472992e-05 0 
0.00021075367332 -0.00012252292083 0 0.00016433509425 -0.00012676331981 0 0.00010940775997 -0.00011127955676 0 
5.5599890659e-05 -8.324936774e-05 0 1.5139461575e-05 -3.9962671918e-05 0 7.6742427418e-07 9.2319834527e-06 0 
3.8499614216e-06 2.2189751195e-05 0 9.7928263486e-06 3.2883735291e-05 0 1.8172740765e-05 4.3077888289e-05 0 
2.9047787586e-05 5.3404645964e-05 0 4.3095803247e-05 6.4720691482e-05 0 6.0300890264e-05 7.9499099632e-05 0 
7.6421060953e-05 0.00010239828738 0 7.7646672272e-05 0.00013524388428 0 6.8323148446e-05 0.0001309688516 0 
6.6016549731e-05 9.7403630729e-05 0 7.8506713213e-05 2.9509553746e-05 0 9.9331838398e-05 -4.0462098193e-05 0 
0.00011238033547 -0.00010308038318 0 0.00011097375116 -0.00014721886555 0 9.4357785362e-05 -0.00016510191996 0 
6.6043375731e-05 -0.00015618270053 0 3.3636922897e-05 -0.00012456054612 0 8.8233560147e-06 -6.3925489508e-05 0 
5.0603765321e-07 1.050544538e-05 0 2.3394066426e-06 2.5832195405e-05 0 5.7424849005e-06 3.8587234266e-05 0 
1.0561062159e-05 5.0572880988e-05 0 1.668156745e-05 6.2905205376e-05 0 2.3864394473e-05 7.6450974753e-05 0 
3.0958915474e-05 9.2068424378e-05 0 3.4742264833e-05 0.00010973248268 0 3.0383876681e-05 0.00012477691215 0 
1.9305574788e-05 0.00012103399801 0 8.5340105272e-06 9.426032134e-05 0 4.7419551806e-06 4.135097127e-05 0 
9.792059276e-06 -2.6428286436e-05 0 1.8596790827e-05 -9.5260966313e-05 0 2.5021699756e-05 -0.0001500199578 0 
2.4967661279e-05 -0.00017897083198 0 1.7911188457e-05 -0.00017768467096 0 7.7558820518e-06 -0.00014562033492 0 
1.3431520596e-06 -7.4091997582e-05 0 9.7898483464e-08 1.1109381517e-05 0 4.2829251292e-07 2.7392022287e-05 0 
1.0381616901e-06 4.1040354819e-05 0 1.8940552922e-06 5.3794231296e-05 0 2.8284427894e-06 6.6738747857e-05 0 
3.391668901e-06 8.0363485407e-05 0 2.5449843578e-06 9.4403750181e-05 0 -1.4996068277e-06 0.00010713591505 0 
-1.0449626743e-05 0.00011406507171 0 -2.3510110291e-05 0.00010760705301 0 -3.7289850207e-05 8.3135962167e-05 0 
-4.7458697996e-05 3.8514427308e-05 0 -5.0717050612e-05 -2.1799990994e-05 0 -4.687204167e-05 -8.7239521262e-05 0 
-3.8454888648e-05 -0.0001431993409 0 -2.8936070111e-05 -0.00017632666882 0 -2.0434888117e-05 -0.00017888412495 0 
-1.2464535162e-05 -0.00014660583438 0 -4.1902283448e-06 -7.1244921297e-05 0 -3.7953581606e-07 1.0827744184e-05 0 
-1.6370491393e-06 2.6746540326e-05 0 -3.7800164459e-06 4.0152738651e-05 0 -6.6961667302e-06 5.2621590782e-05 0 
-1.0492639094e-05 6.5049303504e-05 0 -1.5522033895e-05 7.7586761071e-05 0 -2.2424073135e-05 8.9431750735e-05 0 
-3.2008684107e-05 9.8478712342e-05 0 -4.4720055705e-05 0.00010106088291 0 -5.9758427979e-05 9.2512385986e-05 0 
-7.4899183119e-05 6.9310134131e-05 0 -8.6981136222e-05 3.0089454452e-05 0 -9.278181583e-05 -2.2434050364e-05 0 
-9.0355602648e-05 -8.0334239769e-05 0 -7.994694048e-05 -0.0001312788072 0 -6.3699280294e-05 -0.00016248072379 0 
-4.4239396105e-05 -0.00016476900379 0 -2.3898142938e-05 -0.00013240934941 0 -6.892868223e-06 -6.016182473e-05 0 
-8.2316638438e-07 9.6250419837e-06 0 -3.4872302198e-06 2.4027665367e-05 0 -7.9644407497e-06 3.6251435772e-05 0 
-1.3980241626e-05 4.75909425e-05 0 -2.1537179718e-05 5.872654133e-05 0 -3.0812215531e-05 6.960509263e-05 0 
-4.2064868957e-05 7.925872651e-05 0 -5.5467846335e-05 8.5664148216e-05 0 -7.0790216624e-05 8.5841705146e-05 0 
-8.7022514864e-05 7.6460893233e-05 0 -0.00010224947993 5.4993906681e-05 0 -0.0001138244554 2.0748753321e-05 0 
-0.00011884491717 -2.3914490607e-05 0 -0.00011504294126 -7.2625610436e-05 0 -0.00010179372665 -0.00011532955975 0 
-8.0530571303e-05 -0.00014091915571 0 -5.4290414504e-05 -0.00014063053089 0 -2.7487775951e-05 -0.0001094039306 0 
-7.2973818153e-06 -4.5971574691e-05 0 -1.1356046357e-06 7.6662709636e-06 0 -4.7707320475e-06 1.968724514e-05 0 
-1.0832093299e-05 3.0053284218e-05 0 -1.8928308492e-05 3.9677077984e-05 0 -2.8974458192e-05 4.9037318054e-05 0 
-4.0992655739e-05 5.8001082546e-05 0 -5.4951490326e-05 6.5651248582e-05 0 -7.0593622468e-05 7.0226516624e-05 0 
-8.7239016409e-05 6.9311572508e-05 0 -0.0001036180766 6.0379667437e-05 0 -0.00011783664575 4.1629598272e-05 0 
-0.0001275129401 1.2861791896e-05 0 -0.0001301304125 -2.3665463341e-05 0 -0.00012369686009 -6.2639109387e-05 0 
-0.00010760774962 -9.5977735726e-05 0 -8.3275586583e-05 -0.00011467566136 0 -5.4206656893e-05 -0.00011156493875 0 
-2.5951903464e-05 -8.3412130752e-05 0 -6.4265579669e-06 -3.2247634909e-05 0 -1.2464713897e-06 5.2841949382e-06 0 
-5.2396742524e-06 1.4440990891e-05 0 -1.1921486115e-05 2.2556365354e-05 0 -2.0881879099e-05 3.0117388672e-05 0 
-3.1998380603e-05 3.7434356162e-05 0 -4.5196303754e-05 4.4387923739e-05 0 -6.0260483435e-05 5.024139312e-05 0 
-7.6665015239e-05 5.3589708141e-05 0 -9.3433687421e-05 5.2534314868e-05 0 -0.0001090765599 4.5134992402e-05 0 
-0.00012164930352 3.0082960543e-05 0 -0.00012895013143 7.4313073657e-06 0 -0.00012887069293 -2.0773012712e-05 0 
-0.00011994021028 -5.0167524959e-05 0 -0.00010201419765 -7.4434197061e-05 0 -7.6850623912e-05 -8.6723463237e-05 0 
-4.8286467262e-05 -8.1884050534e-05 0 -2.2029618192e-05 -5.8581416474e-05 0 -5.1488457221e-06 -2.067223122e-05 0 
-1.1248954736e-06 2.9128280748e-06 0 -4.7973355637e-06 9.1467148018e-06 0 -1.1075528787e-05 1.4890636357e-05 0 
-1.9642447442e-05 2.025580603e-05 0 -3.0389056626e-05 2.5432828116e-05 0 -4.320845752e-05 3.037212774e-05 0 
-5.7817868554e-05 3.4583598403e-05 0 -7.3590062323e-05 3.7070777285e-05 0 -8.9428028442e-05 3.6446607423e-05 0 
-0.00010374089286 3.1266962948e-05 0 -0.00011456623373 2.0552905504e-05 0 -0.000119843732 4.3830362283e-06 0 
-0.00011781734467 -1.5618915751e-05 0 -0.00010753847093 -3.6112265529e-05 0 -8.9403247417e-05 -5.2428220346e-05 0 
-6.5547519716e-05 -5.9710138508e-05 0 -3.9860984319e-05 -5.4646683215e-05 0 -1.7494491291e-05 -3.7195441695e-05 0 
-3.9202216295e-06 -1.1603163868e-05 0 -7.8480824452e-07 1.0031243567e-06 0 -3.5206754167e-06 4.6481112577e-06 0 
-8.4810090847e-06 8.15071301e-06 0 -1.5510935117e-05 1.1398884688e-05 0 -2.453619807e-05 1.4517877321e-05 0 